     6
  Step:     0            Position(A)                                  Velocity(au)
C        -0.02724231     0.01251967     0.00949681    -0.00010536     0.00008869     0.00041727
N        -0.04082489    -0.03940756     1.30285654    -0.00001565     0.00004327    -0.00034658
H         0.92546168    -0.04667219    -0.52147036     0.00022940    -0.00060408     0.00019826
H         0.75131443    -0.15192595     1.82064046    -0.00018693    -0.00034836     0.00049352
H        -0.93980608    -0.15352078     1.91735307     0.00122242    -0.00027866    -0.00031087
H        -1.05797006     0.08077644    -0.54259933     0.00020814    -0.00042708    -0.00053683
     6
  Step:     1            Position(A)                                  Velocity(au)
C        -0.02786686     0.01304124     0.01144361    -0.00012254     0.00010217     0.00029320
N        -0.04102081    -0.03915499     1.30122353    -0.00005473     0.00004906    -0.00024934
H         0.92685857    -0.05014472    -0.52042438     0.00027922    -0.00066624     0.00018636
H         0.75146937    -0.15410246     1.82397940     0.00023494    -0.00044680     0.00071986
H        -0.93272160    -0.15512860     1.91519493     0.00135801    -0.00031041    -0.00047416
H        -1.05644123     0.07830824    -0.54533086     0.00034866    -0.00047586    -0.00046073
     6
  Step:     2            Position(A)                                  Velocity(au)
C        -0.02858272     0.01363723     0.01270394    -0.00013862     0.00011585     0.00016667
N        -0.04142357    -0.03887087     1.30012909    -0.00009065     0.00005473    -0.00014975
H         0.92851599    -0.05395986    -0.51943189     0.00032392    -0.00072892     0.00017850
H         0.75388434    -0.15681326     1.82851463     0.00063249    -0.00054258     0.00092651
H        -0.92495145    -0.15691621     1.91216641     0.00147111    -0.00034439    -0.00062721
H        -1.05415626     0.07557128    -0.54763908     0.00048406    -0.00052526    -0.00038275
     6
  Step:     3            Position(A)                                  Velocity(au)
C        -0.02938319     0.01430856     0.01326678    -0.00015331     0.00012963     0.00003861
N        -0.04201245    -0.03855627     1.29958541    -0.00012220     0.00006014    -0.00004816
H         0.93040194    -0.05811839    -0.51847172     0.00036197    -0.00079120     0.00017428
H         0.75838820    -0.16003775     1.83411455     0.00099269    -0.00063348     0.00110521
H        -0.91662907    -0.15889593     1.90833387     0.00155741    -0.00038067    -0.00076592
H        -1.05114611     0.07256240    -0.54951776     0.00061307    -0.00057507    -0.00030432
     6
  Step:     4            Position(A)                                  Velocity(au)
C        -0.03026008     0.01505549     0.01312638    -0.00016630     0.00014333    -0.00008984
N        -0.04276060    -0.03821289     1.29960218    -0.00014830     0.00006518     0.00005476
H         0.93247630    -0.06261635    -0.51752512     0.00039189    -0.00085200     0.00017317
H         0.76474529    -0.16374411     1.84060670     0.00130469    -0.00071739     0.00124910
H        -0.90791196    -0.16108112     1.90378653     0.00161189    -0.00041940    -0.00088569
H        -1.04744865     0.06927944    -0.55096865     0.00073412    -0.00062494    -0.00022693
     6
  Step:     5            Position(A)                                  Velocity(au)
C        -0.03120345     0.01587742     0.01228339    -0.00017723     0.00015675    -0.00021725
N        -0.04363571    -0.03784288     1.30018483    -0.00016800     0.00006976     0.00015795
H         0.93469141    -0.06744399    -0.51657627     0.00041234    -0.00091000     0.00017459
H         0.77266879    -0.16789002     1.84778676     0.00156006    -0.00079233     0.00135307
H        -0.89898592    -0.16348654     1.89863949     0.00162915    -0.00046075    -0.00098152
H        -1.04311074     0.06572208    -0.55200163     0.00084512    -0.00067429    -0.00015217
     6
  Step:     6            Position(A)                                  Velocity(au)
C        -0.03220150     0.01677257     0.01074657    -0.00018574     0.00016962    -0.00034181
N        -0.04460094    -0.03744871     1.30133236    -0.00018058     0.00007384     0.00025989
H         0.93699307    -0.07258450    -0.51561262     0.00042226    -0.00096369     0.00017789
H         0.78183422    -0.17242337     1.85542832     0.00175300    -0.00085649     0.00141398
H        -0.89006618    -0.16612816     1.89303490     0.00160399    -0.00050479    -0.00104849
H        -1.03819113     0.06189317    -0.55263548     0.00094349    -0.00072236    -0.00008181
     6
  Step:     7            Position(A)                                  Velocity(au)
C        -0.03324045     0.01773766     0.00853477    -0.00019145     0.00018163    -0.00046136
N        -0.04561612    -0.03703311     1.30303506    -0.00018555     0.00007736     0.00035870
H         0.93932237    -0.07801281    -0.51462541     0.00042104    -0.00101145     0.00018230
H         0.79189397    -0.17728316     1.86329383     0.00188059    -0.00090832     0.00143084
H        -0.88139494    -0.16902256     1.88714070     0.00153214    -0.00055148    -0.00108221
H        -1.03276351     0.05779998    -0.55289882     0.00102617    -0.00076815    -0.00001780
     6
  Step:     8            Position(A)                                  Velocity(au)
C        -0.03430454     0.01876769     0.00567861    -0.00019404     0.00019244    -0.00057354
N        -0.04663920    -0.03659888     1.30527255    -0.00018275     0.00008033     0.00045221
H         0.94161812    -0.08369498    -0.51361007     0.00040858    -0.00105163     0.00018704
H         0.80249200    -0.18240101     1.87114572     0.00194261    -0.00094663     0.00140474
H        -0.87323601    -0.17218606     1.88114715     0.00141082    -0.00060063    -0.00107931
H        -1.02691888     0.05345522    -0.55283095     0.00108987    -0.00081058     0.00003784
     6
  Step:     9            Position(A)                                  Velocity(au)
C        -0.03537632     0.01985587     0.00222169    -0.00019325     0.00020173    -0.00067589
N        -0.04762772    -0.03614887     1.30801265    -0.00017232     0.00008275     0.00053821
H         0.94381969    -0.08958837    -0.51256659     0.00038534    -0.00108277     0.00019126
H         0.81327687    -0.18770296     1.87875623     0.00194142    -0.00097068     0.00133861
H        -0.86586567    -0.17563386     1.87526045     0.00123954    -0.00065186    -0.00103811
H        -1.02076694     0.04887766    -0.55248227     0.00113125    -0.00084856     0.00008307
     6
  Step:    10            Position(A)                                  Velocity(au)
C        -0.03643694     0.02099368    -0.00177929    -0.00018893     0.00020925    -0.00076614
N        -0.04854065    -0.03568579     1.31121129    -0.00015478     0.00008465     0.00061466
H         0.94587004    -0.09564261    -0.51149963     0.00035237    -0.00110379     0.00019415
H         0.82391410    -0.19311178     1.88591626     0.00188165    -0.00098031     0.00123693
H        -0.85955859    -0.17937880     1.86969241     0.00102086    -0.00070457    -0.00095919
H        -1.01443637     0.04409199    -0.55191432     0.00114729    -0.00088115     0.00011602
     6
  Step:    11            Position(A)                                  Velocity(au)
C        -0.03746677     0.02217120    -0.00625560    -0.00018105     0.00021480    -0.00084246
N        -0.04934030    -0.03521222     1.31481382    -0.00013100     0.00008607     0.00067996
H         0.94771860    -0.10180166    -0.51041836     0.00031120    -0.00111408     0.00019496
H         0.83409706    -0.19854996     1.89244275     0.00177008    -0.00097599     0.00110555
H        -0.85456999    -0.18342984     1.86464710     0.00076081    -0.00075793    -0.00084583
H        -1.00807226     0.03912781    -0.55119848     0.00113582    -0.00090775     0.00013522
     6
  Step:    12            Position(A)                                  Velocity(au)
C        -0.03844618     0.02337757    -0.01112887    -0.00016976     0.00021834    -0.00090367
N        -0.04999452    -0.03473057     1.31875746    -0.00010225     0.00008707     0.00073315
H         0.94932376    -0.10800664    -0.50933595     0.00026376    -0.00111373     0.00019311
H         0.84355831    -0.20394329     1.89818554     0.00161539    -0.00095896     0.00095130
H        -0.85111520    -0.18779026     1.86030541     0.00046887    -0.00081086    -0.00070400
H        -1.00183115     0.03401787    -0.55041360     0.00109583    -0.00092819     0.00013978
     6
  Step:    13            Position(A)                                  Velocity(au)
C        -0.03935647     0.02460171    -0.01631496    -0.00015538     0.00021995    -0.00094950
N        -0.05047853    -0.03424301     1.32297497    -0.00007002     0.00008770     0.00077409
H         0.95065474    -0.11419937    -0.50826868     0.00021218    -0.00110354     0.00018821
H         0.85207902    -0.20922483     1.90303233     0.00142741    -0.00093114     0.00078148
H        -0.84935069    -0.19245613     1.85681039     0.00015722    -0.00086217    -0.00054188
H        -0.99587382     0.02879548    -0.54964247     0.00102784    -0.00094292     0.00012952
     6
  Step:    14            Position(A)                                  Velocity(au)
C        -0.04018083     0.02583310    -0.02172890    -0.00013838     0.00021989    -0.00098069
N        -0.05077622    -0.03375150     1.32739925    -0.00003591     0.00008803     0.00080357
H         0.95169244    -0.12032633    -0.50723478     0.00015858    -0.00108502     0.00018010
H         0.85949366    -0.21433830     1.90690981     0.00121626    -0.00089497     0.00060310
H        -0.84936005    -0.19741540     1.85425599    -0.00016060    -0.00091069    -0.00036893
H        -0.99035659     0.02349134    -0.54896770     0.00093380    -0.00095296     0.00010498
     6
  Step:    15            Position(A)                                  Velocity(au)
C        -0.04090512     0.02706265    -0.02729044    -0.00011930     0.00021853    -0.00099890
N        -0.05088048    -0.03325777     1.33196826    -0.00000148     0.00008813     0.00082318
H         0.95242951    -0.12634246    -0.50625313     0.00010495    -0.00106023     0.00016879
H         0.86569090    -0.21924098     1.90978199     0.00099158    -0.00085328     0.00042245
H        -0.85114806    -0.20264819     1.85268147    -0.00047126    -0.00095543    -0.00019475
H        -0.98542304     0.01813031    -0.54846762     0.00081695    -0.00095990     0.00006735
     6
  Step:    16            Position(A)                                  Velocity(au)
C        -0.04151847     0.02828340    -0.03292899    -0.00009874     0.00021633    -0.00100642
N        -0.05079282    -0.03276331     1.33662907     0.00003192     0.00008807     0.00083498
H         0.95286917    -0.13221413    -0.50534222     0.00005293    -0.00103152     0.00015442
H         0.87061172    -0.22390565     1.91164645     0.00076194    -0.00080896     0.00024465
H        -0.85464405    -0.20812805     1.85207240    -0.00076310    -0.00099566    -0.00002795
H        -0.98119657     0.01272856    -0.54821252     0.00068127    -0.00096562     0.00001830
     6
  Step:    17            Position(A)                                  Velocity(au)
C        -0.04201342     0.02949086    -0.03858685    -0.00013356     0.00036960    -0.00173908
N        -0.05052217    -0.03226925     1.34134038     0.00010930     0.00015200     0.00145457
H         0.95302366    -0.13792057    -0.50451984     0.00000661    -0.00173103     0.00023703
H         0.87424317    -0.22832095     1.91252806     0.00092371    -0.00132215     0.00012707
H        -0.85971328    -0.21382381     1.85236776    -0.00177567    -0.00178248     0.00021541
H        -0.97777621     0.00729189    -0.54826217     0.00091812    -0.00168078    -0.00006961
     6
  Step:    18            Position(A)                                  Velocity(au)
C        -0.04271259     0.03152002    -0.04798348    -0.00006328     0.00019442    -0.00088286
N        -0.04982654    -0.03143266     1.34924804     0.00007507     0.00008027     0.00074838
H         0.95321245    -0.14748735    -0.50354522     0.00003442    -0.00092349     0.00006175
H         0.87877691    -0.23538642     1.91286054     0.00038141    -0.00065751    -0.00000184
H        -0.87028223    -0.22378591     1.85405313    -0.00107885    -0.00096963     0.00020220
H        -0.97326470    -0.00191919    -0.54917111     0.00037392    -0.00088158    -0.00014167
     6
  Step:    19            Position(A)                                  Velocity(au)
C        -0.04300083     0.03260493    -0.05291305    -0.00003926     0.00019113    -0.00086693
N        -0.04933132    -0.03098265     1.35345477     0.00009911     0.00007955     0.00074534
H         0.95327315    -0.15258327    -0.50325816    -0.00001106    -0.00088754     0.00003932
H         0.88028980    -0.23896737     1.91239783     0.00016243    -0.00061661    -0.00015680
H        -0.87689945    -0.22929997     1.85551481    -0.00125311    -0.00098610     0.00030649
H        -0.97166780    -0.00690980    -0.55017413     0.00019243    -0.00089283    -0.00021602
     6
  Step:    20            Position(A)                                  Velocity(au)
C        -0.04315448     0.03367112    -0.05774034    -0.00001579     0.00018908    -0.00085272
N        -0.04871116    -0.03053735     1.35763641     0.00012008     0.00007913     0.00074478
H         0.95308800    -0.15747611    -0.50310271    -0.00005295    -0.00085733     0.00001502
H         0.88060493    -0.24232603     1.91109585    -0.00004292    -0.00058292    -0.00030136
H        -0.88438524    -0.23488391     1.85750248    -0.00139574    -0.00100082     0.00039113
H        -0.97109903    -0.01196746    -0.55160229     0.00001102    -0.00091156    -0.00029340
     6
  Step:    21            Position(A)                                  Velocity(au)
C        -0.04317788     0.03472538    -0.06247621     0.00000699     0.00018794    -0.00083934
N        -0.04798459    -0.03009528     1.36180738     0.00013766     0.00007883     0.00074584
H         0.95267934    -0.16219806    -0.50308969    -0.00009095    -0.00083136    -0.00001159
H         0.87980842    -0.24550469     1.90901818    -0.00023378    -0.00055593    -0.00043508
H        -0.89255240    -0.24052395     1.85990122    -0.00150385    -0.00101141     0.00045542
H        -0.97154423    -0.01713278    -0.55346453    -0.00016772    -0.00093630    -0.00037157
     6
  Step:    22            Position(A)                                  Velocity(au)
C        -0.04307630     0.03577279    -0.06712655     0.00002880     0.00018736    -0.00082564
N        -0.04717169    -0.02965575     1.36597704     0.00015145     0.00007853     0.00074731
H         0.95207097    -0.16677308    -0.50323227    -0.00012457    -0.00080803    -0.00004082
H         0.87799065    -0.24854298     1.90623037    -0.00040822    -0.00053522    -0.00055675
H        -0.90120258    -0.24619441     1.86259542    -0.00157468    -0.00101548     0.00049895
H        -0.97297460    -0.02243802    -0.55575753    -0.00034033    -0.00096517    -0.00044794
     6
  Step:    23            Position(A)                                  Velocity(au)
C        -0.04285640     0.03681642    -0.07169097     0.00004930     0.00018700    -0.00081065
N        -0.04629429    -0.02921879     1.37014798     0.00016109     0.00007812     0.00074804
H         0.95128905    -0.17121628    -0.50354523    -0.00015324    -0.00078600    -0.00007281
H         0.87525232    -0.25147813     1.90280439    -0.00056348    -0.00052058    -0.00066458
H        -0.91012708    -0.25185749     1.86546994    -0.00160648    -0.00101106     0.00052182
H        -0.97534256    -0.02790479    -0.55846388    -0.00050270    -0.00099623    -0.00051974
     6
  Step:    24            Position(A)                                  Velocity(au)
C        -0.04252675     0.03785750    -0.07616368     0.00006807     0.00018661    -0.00079370
N        -0.04537588    -0.02878492     1.37431624     0.00016631     0.00007753     0.00074707
H         0.95036264    -0.17553550    -0.50404398    -0.00017638    -0.00076434    -0.00010755
H         0.87170893    -0.25434645     1.89882164    -0.00069634    -0.00051213    -0.00075658
H        -0.91911177    -0.25746581     1.86841269    -0.00159896    -0.00099692     0.00052479
H        -0.97857873    -0.03354401    -0.56155158    -0.00065055    -0.00102774    -0.00058432
     6
  Step:    25            Position(A)                                  Velocity(au)
C        -0.04209790     0.03889582    -0.08053516     0.00008475     0.00018599    -0.00077447
N        -0.04444109    -0.02835484     1.37847251     0.00016699     0.00007679     0.00074369
H         0.94932361    -0.17973331    -0.50474368    -0.00019354    -0.00074246    -0.00014488
H         0.86749298    -0.25718480     1.89437388    -0.00080357    -0.00051021    -0.00083088
H        -0.92794423    -0.26296607     1.87131764    -0.00155343    -0.00097252     0.00050933
H        -0.98259159    -0.03935687    -0.56497496    -0.00077993    -0.00105823    -0.00063943
     6
  Step:    26            Position(A)                                  Velocity(au)
C        -0.04158231     0.03993007    -0.08479400     0.00009903     0.00018501    -0.00075290
N        -0.04351502    -0.02792919     1.38260351     0.00016313     0.00007594     0.00073746
H         0.94820592    -0.18380905    -0.50565842    -0.00020443    -0.00072006    -0.00018452
H         0.86275431    -0.26003193     1.88956272    -0.00088219    -0.00051531    -0.00088591
H        -0.93642233    -0.26830302     1.87408834    -0.00147270    -0.00093803     0.00047748
H        -0.98726981    -0.04533635    -0.56867702    -0.00088762    -0.00108650    -0.00068331
     6
  Step:    27            Position(A)                                  Velocity(au)
C        -0.04099390     0.04095825    -0.08892836     0.00011070     0.00018360    -0.00072917
N        -0.04262258    -0.02750827     1.38669348     0.00015486     0.00007507     0.00072816
H         0.94704464    -0.18776041    -0.50680063    -0.00020900    -0.00069711    -0.00022612
H         0.85765851    -0.26292936     1.88449792    -0.00092987    -0.00052801    -0.00092062
H        -0.94436151    -0.27342299     1.87664052    -0.00136079    -0.00089418     0.00043175
H        -0.99248655    -0.05146896    -0.57259234    -0.00097142    -0.00111171    -0.00071486
     6
  Step:    28            Position(A)                                  Velocity(au)
C        -0.04034755     0.04197796    -0.09292727     0.00011966     0.00018174    -0.00070360
N        -0.04178767    -0.02709185     1.39072548     0.00014247     0.00007428     0.00071580
H         0.94587466    -0.19158468    -0.50818065    -0.00020744    -0.00067369    -0.00026931
H         0.85238242    -0.26592142     1.87929397    -0.00094532    -0.00054880    -0.00093468
H        -0.95160081    -0.27827685     1.87890415    -0.00122261    -0.00084214     0.00037488
H        -0.99810522    -0.05773652    -0.57665073    -0.00103029    -0.00113330    -0.00073365
     6
  Step:    29            Position(A)                                  Velocity(au)
C        -0.03965838     0.04298674    -0.09678147     0.00012593     0.00017946    -0.00067664
N        -0.04103241    -0.02667919     1.39468268     0.00012636     0.00007369     0.00070056
H         0.94472937    -0.19527967    -0.50980643    -0.00020016    -0.00065003    -0.00031365
H         0.84710755    -0.26905464     1.87406566    -0.00092849    -0.00057803    -0.00092858
H        -0.95800738    -0.28282237     1.88082468    -0.00106359    -0.00078339     0.00030974
H        -1.00398586    -0.06411808    -0.58078084    -0.00106427    -0.00115107    -0.00073985
     6
  Step:    30            Position(A)                                  Velocity(au)
C        -0.03894120     0.04398221    -0.10048396     0.00012963     0.00017681    -0.00064876
N        -0.04037645    -0.02626891     1.39854932     0.00010703     0.00007339     0.00068277
H         0.94363933    -0.19884418    -0.51168350    -0.00018777    -0.00062637    -0.00035876
H         0.84201302    -0.27237684     1.86892357    -0.00088056    -0.00061586    -0.00090355
H        -0.96347897    -0.28702574     1.88236336    -0.00088931    -0.00071956     0.00023913
H        -1.00999097    -0.07059163    -0.58491338    -0.00107437    -0.00116504    -0.00073413
     6
  Step:    31            Position(A)                                  Velocity(au)
C        -0.03820997     0.04496232    -0.10403032     0.00013097     0.00017385    -0.00062045
N        -0.03983650    -0.02585913     1.40231152     0.00008504     0.00007349     0.00066283
H         0.94263131    -0.20227830    -0.51381499    -0.00017106    -0.00060294    -0.00040425
H         0.83726874    -0.27593587     1.86396997    -0.00080379    -0.00066219    -0.00086143
H        -0.96794402    -0.29086227     1.88349656    -0.00070512    -0.00065229     0.00016561
H        -1.01599022    -0.07713557    -0.58898353    -0.00106229    -0.00117546    -0.00071750
     6
  Step:    32            Position(A)                                  Velocity(au)
C        -0.03747739     0.04592534    -0.10741869     0.00013019     0.00017065    -0.00059213
N        -0.03942601    -0.02544751     1.40595773     0.00006097     0.00007404     0.00064117
H         0.94172741    -0.20558328    -0.51620176    -0.00015089    -0.00057996    -0.00044975
H         0.83302904    -0.27977816     1.85929531    -0.00070155    -0.00071665    -0.00080465
H        -0.97136014    -0.29431635     1.88421442    -0.00051595    -0.00058315     0.00009148
H        -1.02186422    -0.08372978    -0.59293287    -0.00103025    -0.00118269    -0.00069121
     6
  Step:    33            Position(A)                                  Velocity(au)
C        -0.03675463     0.04686997    -0.11064946     0.00012758     0.00016728    -0.00056416
N        -0.03915493    -0.02503145     1.40947892     0.00003547     0.00007508     0.00061825
H         0.94094462    -0.20876140    -0.51884253    -0.00012818    -0.00055754    -0.00049492
H         0.82942646    -0.28394692     1.85497516    -0.00057811    -0.00077850    -0.00073601
H        -0.97371158    -0.29738099     1.88451915    -0.00032619    -0.00051356     0.00001869
H        -1.02750687    -0.09035635    -0.59671031    -0.00098065    -0.00118714    -0.00065659
     6
  Step:    34            Position(A)                                  Velocity(au)
C        -0.03605124     0.04779526    -0.11372494     0.00012343     0.00016380    -0.00053683
N        -0.03902957    -0.02460825     1.41286859     0.00000916     0.00007661     0.00059446
H         0.94029456    -0.21181551    -0.52173399    -0.00010390    -0.00053573    -0.00053940
H         0.82656688    -0.28848035     1.85106812    -0.00043850    -0.00084671    -0.00065861
H        -0.97500632    -0.30005699     1.88442333    -0.00013975    -0.00044482    -0.00005106
H        -1.03282601    -0.09699977    -0.60027233    -0.00091596    -0.00118922    -0.00061494
     6
  Step:    35            Position(A)                                  Velocity(au)
C        -0.03537515     0.04870055    -0.11664896     0.00011802     0.00016023    -0.00051032
N        -0.03905256    -0.02417524     1.41612256    -0.00001730     0.00007861     0.00057017
H         0.93978347    -0.21474866    -0.52487083    -0.00007897    -0.00051450    -0.00058284
H         0.82452580    -0.29340969     1.84761462    -0.00028832    -0.00091988    -0.00057568
H        -0.97527342    -0.30235224     1.88394850     0.00003988    -0.00037808    -0.00011631
H        -1.03774355    -0.10364688    -0.60358276    -0.00083858    -0.00118926    -0.00056747
     6
  Step:    36            Position(A)                                  Velocity(au)
C        -0.03473269     0.04958542    -0.11942636     0.00011160     0.00015661    -0.00048477
N        -0.03922279    -0.02373002     1.41923870    -0.00004324     0.00008101     0.00054568
H         0.93941234    -0.21756369    -0.52824562    -0.00005428    -0.00049377    -0.00062483
H         0.82334571    -0.29875755     1.84463644    -0.00013349    -0.00099632    -0.00049048
H        -0.97456073    -0.30428096     1.88312389     0.00020957    -0.00031438    -0.00017578
H        -1.04219484    -0.11028654    -0.60661227    -0.00075073    -0.00118754    -0.00051532
     6
  Step:    37            Position(A)                                  Velocity(au)
C        -0.03412878     0.05044955    -0.12206272     0.00010442     0.00015294    -0.00046025
N        -0.03953549    -0.02327050     1.42221656    -0.00006804     0.00008376     0.00052123
H         0.93917724    -0.22026296    -0.53184875    -0.00003070    -0.00047340    -0.00066494
H         0.82303500    -0.30453630     1.84213710     0.00001996    -0.00107407    -0.00040611
H        -0.97293295    -0.30586317     1.88198545     0.00036645    -0.00025471    -0.00022834
H        -1.04612751    -0.11690909    -0.60933768    -0.00065445    -0.00118423    -0.00045947
     6
  Step:    38            Position(A)                                  Velocity(au)
C        -0.03356707     0.05129269    -0.12456402     0.00009668     0.00014923    -0.00043680
N        -0.03998231    -0.02279506     1.42505710    -0.00009106     0.00008675     0.00049703
H         0.93906961    -0.22284813    -0.53566817    -0.00000901    -0.00045325    -0.00070270
H         0.82356846    -0.31074708     1.84010309     0.00016618    -0.00115103    -0.00032547
H        -0.97047015    -0.30712427     1.88057501     0.00050783    -0.00020003    -0.00027297
H        -1.04950030    -0.12350586    -0.61174125    -0.00055158    -0.00117941    -0.00040083
     6
  Step:    39            Position(A)                                  Velocity(au)
C        -0.03305009     0.05211457    -0.12693636     0.00008855     0.00014545    -0.00041441
N        -0.04055152    -0.02230258     1.42776223    -0.00011172     0.00008990     0.00047320
H         0.93907672    -0.22532017    -0.53968919     0.00001009    -0.00043321    -0.00073757
H         0.82488918    -0.31737909     1.83850566     0.00029979    -0.00122503    -0.00025103
H        -0.96726678    -0.30809499     1.87893972     0.00063118    -0.00015128    -0.00030877
H        -1.05228182    -0.13006853    -0.61381005    -0.00044375    -0.00117304    -0.00034020
     6
  Step:    40            Position(A)                                  Velocity(au)
C        -0.03257947     0.05291488    -0.12918589     0.00008019     0.00014160    -0.00039313
N        -0.04122828    -0.02179239     1.43033460    -0.00012948     0.00009313     0.00044987
H         0.93918214    -0.22767961    -0.54389411     0.00002598    -0.00041324    -0.00076896
H         0.82691191    -0.32440949     1.83730338     0.00041607    -0.00129389    -0.00018483
H        -0.96343077    -0.30881149     1.87713137     0.00073415    -0.00010950    -0.00033497
H        -1.05444935    -0.13658851    -0.61553538    -0.00033239    -0.00116498    -0.00027827
     6
  Step:    41            Position(A)                                  Velocity(au)
C        -0.03215617     0.05369321    -0.13131901     0.00007166     0.00013767    -0.00037302
N        -0.04199497    -0.02126430     1.43277749    -0.00014386     0.00009637     0.00042717
H         0.93936632    -0.22992706    -0.54826176     0.00003814    -0.00039348    -0.00079614
H         0.82952760    -0.33180361     1.83644508     0.00051119    -0.00135547    -0.00012831
H        -0.95908229    -0.30931574     1.87520541     0.00081464    -0.00007584    -0.00035104
H        -1.05598743    -0.14305602    -0.61691232    -0.00021866    -0.00115487    -0.00021572
     6
  Step:    42            Position(A)                                  Velocity(au)
C        -0.03178088     0.05444907    -0.13334282     0.00006296     0.00013363    -0.00035432
N        -0.04283153    -0.02071844     1.43509502    -0.00015446     0.00009955     0.00040531
H         0.93960719    -0.23206456    -0.55276643     0.00004620    -0.00037448    -0.00081804
H         0.83260865    -0.33951506     1.83587349     0.00058229    -0.00140755    -0.00008215
H        -0.95435225    -0.30965661     1.87321938     0.00087090    -0.00005182    -0.00035687
H        -1.05688610    -0.14945858    -0.61793935    -0.00010327    -0.00114188    -0.00015314
     6
  Step:    43            Position(A)                                  Velocity(au)
C        -0.03145472     0.05518190    -0.13526636     0.00005379     0.00012948    -0.00033769
N        -0.04371568    -0.02015527     1.43729286    -0.00016078     0.00010264     0.00038478
H         0.93988102    -0.23409893    -0.55737515     0.00005005    -0.00035821    -0.00083251
H         0.83601462    -0.34748438     1.83552994     0.00062748    -0.00144686    -0.00004578
H        -0.94938008    -0.30989306     1.87122974     0.00090155    -0.00004043    -0.00035344
H        -1.05713793    -0.15577716    -0.61861840     0.00001411    -0.00112362    -0.00009134
     6
  Step:    44            Position(A)                                  Velocity(au)
C        -0.03118176     0.05589106    -0.13710371     0.00004203     0.00012527    -0.00032424
N        -0.04462211    -0.01957537     1.43938034    -0.00016135     0.00010555     0.00036634
H         0.94016463    -0.23605404    -0.56203822     0.00005253    -0.00035692    -0.00083231
H         0.83959703    -0.35562902     1.83536368     0.00064544    -0.00146053    -0.00001274
H        -0.94431157    -0.31010686     1.86928305     0.00090481    -0.00005419    -0.00034715
H        -1.05672893    -0.16197251    -0.61895658     0.00013855    -0.00108782    -0.00003482
     6