 Fermi distribution function

Calculation with static geometry


********************************************************************************
 iSCC Total electronic   Diff electronic      SCC error    
   12   -0.53543023E+01   -0.99449338E-11    0.69178913E-07
********************************************************************************

 Total charge:     1.00000000

 Atomic gross charges (e)
 Atom           Charge
    1       0.32813370
    2      -0.21956851
    3       0.15971781
    4       0.30446255
    5       0.26946477
    6       0.15778968

Nr. of electrons (up):     12.00000000
Atom populations (up)
 Atom       Population
    1       3.67186630
    2       5.21956851
    3       0.84028219
    4       0.69553745
    5       0.73053523
    6       0.84221032

l-shell populations (up)
 Atom Sh.   l       Population
    1   1   0       1.32537570
    1   2   1       2.34649060
    2   1   0       1.44253720
    2   2   1       3.77703130
    3   1   0       0.84028219
    4   1   0       0.69553745
    5   1   0       0.73053523
    6   1   0       0.84221032

Orbital populations (up)
 Atom Sh.   l   m       Population  Label
    1   1   0   0       1.32537570  s
    1   2   1  -1       0.48735542  p_y
    1   2   1   0       0.89548246  p_z
    1   2   1   1       0.96365272  p_x
    2   1   0   0       1.44253720  s
    2   2   1  -1       1.28931088  p_y
    2   2   1   0       1.11478987  p_z
    2   2   1   1       1.37293055  p_x
    3   1   0   0       0.84028219  s
    4   1   0   0       0.69553745  s
    5   1   0   0       0.73053523  s
    6   1   0   0       0.84221032  s

Fermi level:                        -0.4953477037 H          -13.4791 eV
Band energy:                        -8.8062635140 H         -239.6306 eV
TS:                                  0.0000000000 H            0.0000 eV
Band free energy (E-TS):            -8.8062635140 H         -239.6306 eV
Extrapolated E(0K):                 -8.8062635140 H         -239.6306 eV
Input / Output electrons (q):     12.0000000000     12.0000000000

Energy H0:                          -5.4894522263 H         -149.3756 eV
Energy SCC:                          0.1351498962 H            3.6776 eV
Total Electronic energy:            -5.3543023300 H         -145.6980 eV
Repulsive energy:                    0.1742076357 H            4.7404 eV
Total energy:                       -5.1800946943 H         -140.9575 eV
Extrapolated to 0:                  -5.1800946943 H         -140.9575 eV
Total Mermin free energy:           -5.1800946943 H         -140.9575 eV
Force related energy:               -5.1800946943 H         -140.9575 eV

SCC converged

Excitation Energy:                   0.0867374563 H            2.3602 eV

Total Forces
    1     -0.007162565204     -0.008769069519      0.046619604272
    2      0.017321415652     -0.012665604447     -0.053636173038
    3     -0.005522310174      0.017624499021      0.006127897557
    4     -0.015328399832     -0.002961497131      0.000147300149
    5      0.003107186807      0.017522053367      0.002610922609
    6      0.007584672751     -0.010750381292     -0.001869551548

Maximal derivative component:        0.536362E-01 au


