|===============================================================================
|
|  DFTB+ release 20.1
|
|  Copyright (C) 2006 - 2020  DFTB+ developers group
|
|===============================================================================
|
|  When publishing results obtained with DFTB+, please cite the following
|  reference:
|
|  * DFTB+, a software package for efficient approximate density functional
|    theory based atomistic simulations, J. Chem. Phys. 152, 124101 (2020).
|    [doi: 10.1063/1.5143190]
|
|  You should also cite additional publications crediting the parametrization
|  data you use. Please consult the documentation of the SK-files for the
|  references.
|
|===============================================================================

Reading input file 'dftb_in.hsd'
Parser version: 8

--------------------------------------------------------------------------------
Reading SK-files:
Done.


Processed input in HSD format written to 'dftb_pin.hsd'

Starting initialization...
--------------------------------------------------------------------------------
OpenMP threads:              1
Chosen random seed:          499999858
Mode:                        Static calculation
Self consistent charges:     Yes
SCC-tolerance:                 0.100000E-05
Max. scc iterations:                   1000
Shell resolved Hubbard:      No
Spin polarisation:           No
Nr. of up electrons:            16.000000
Nr. of down electrons:          16.000000
Periodic boundaries:         No
Electronic solver:           Relatively robust
Maximal SCC-cycles:                    1000
Initial charges:             Set automatically (system chrg:   0.100E+01)
Included shells:             C:  s, p
                             H:  s
                             N:  s, p
Spin coupling constants:     C   1(s)-1(s):  -0.455900E-01
                             C   1(s)-2(p):  -0.293000E-01
                             C   2(p)-1(s):  -0.293000E-01
                             C   2(p)-2(p):  -0.275500E-01
                             H   1(s)-1(s):  -0.792500E-01
                             N   1(s)-1(s):  -0.468700E-01
                             N   1(s)-2(p):  -0.317000E-01
                             N   2(p)-1(s):  -0.317000E-01
                             N   2(p)-2(p):  -0.307200E-01
Range separated hybrid:      Yes
  Screening parameter omega:   0.300000E+00
  Range separated algorithm:   MatrixBased
Extra options:
                             Mulliken analysis
                             Force calculation
Force type                   original
                             Eigenvector printing


REKS Calcuation:             Yes
SSR(2,2) Calcuation:         Yes
Energy Functional:           (PPS+OSS)/2
Number of Core Orbitals:                 15
Number of Active Orbitals:                2
Number of Basis:                         32
Number of States:                         2
State-Averaging Weight:          0.500000
                                 0.500000
State of Interest:                        1
Initial Guess:               Diagonalize H0 matrix
Newton-Raphson for FON opt:  Yes
NR max. Iterations:                      50
Level Shifting:              Yes
Shift Value:                     0.300000
W Scale Factor:              C  =    3.200000
                             H  =    3.200000
                             N  =    3.200000
Transition Dipole:           No
Gradient of Microstate:      No
CP-REKS Solver:              Preconditioned Conjugate-Gradient
CG max. Iterations:                     100
CG Tolerance:                  0.100000E-07
Memory for A and Hxc:        Direct Updating Without Saving
Non-Adiabatic Coupling:      Yes

--------------------------------------------------------------------------------

***  Geometry step: 0

  iSCC       reks energy        Diff energy         x_a       SCC error   
    1      -16.4180600794       0.0000000000     0.984009    1.21197437
    2      -16.4357596024      -0.0176995230     0.997342    0.07642809
    3      -16.4396549062      -0.0038953038     0.998960    0.03323090
    4      -16.4411374709      -0.0014825647     0.999415    0.01727533
    5      -16.4418237046      -0.0006862337     0.999603    0.01021044
    6      -16.4421728546      -0.0003491499     0.999698    0.00644841
    7      -16.4423608243      -0.0001879697     0.999751    0.00422722
    8      -16.4424658605      -0.0001050362     0.999783    0.00284245
    9      -16.4425262129      -0.0000603524     0.999804    0.00203625
   10      -16.4425617160      -0.0000355031     0.999817    0.00160991
   11      -16.4425830538      -0.0000213378     0.999826    0.00127191
   12      -16.4425961398      -0.0000130860     0.999833    0.00100451
   13      -16.4426043204      -0.0000081806     0.999837    0.00079333
   14      -16.4426095275      -0.0000052071     0.999840    0.00062674
   15      -16.4426128980      -0.0000033705     0.999842    0.00049543
   16      -16.4426151135      -0.0000022155     0.999844    0.00039195
   17      -16.4426165902      -0.0000014767     0.999845    0.00031039
   18      -16.4426175868      -0.0000009966     0.999846    0.00024608
   19      -16.4426182669      -0.0000006801     0.999846    0.00019533
   20      -16.4426187356      -0.0000004686     0.999847    0.00015524
   21      -16.4426190613      -0.0000003257     0.999847    0.00012353
   22      -16.4426192893      -0.0000002281     0.999847    0.00010007
   23      -16.4426194501      -0.0000001608     0.999847    0.00008236
   24      -16.4426195641      -0.0000001140     0.999848    0.00006893
   25      -16.4426196453      -0.0000000813     0.999848    0.00005850
   26      -16.4426197035      -0.0000000582     0.999848    0.00004975
   27      -16.4426197454      -0.0000000419     0.999848    0.00004238
   28      -16.4426197756      -0.0000000302     0.999848    0.00003616
   29      -16.4426197975      -0.0000000219     0.999848    0.00003090
   30      -16.4426198134      -0.0000000159     0.999848    0.00002644
   31      -16.4426198251      -0.0000000116     0.999848    0.00002265
   32      -16.4426198336      -0.0000000085     0.999848    0.00001943
   33      -16.4426198398      -0.0000000062     0.999848    0.00001668
   34      -16.4426198444      -0.0000000046     0.999848    0.00001434
   35      -16.4426198478      -0.0000000034     0.999848    0.00001233
   36      -16.4426198503      -0.0000000025     0.999848    0.00001062
   37      -16.4426198521      -0.0000000019     0.999848    0.00000915
   38      -16.4426198535      -0.0000000014     0.999848    0.00000789
   39      -16.4426198546      -0.0000000010     0.999847    0.00000681
   40      -16.4426198553      -0.0000000008     0.999847    0.00000588
   41      -16.4426198559      -0.0000000006     0.999847    0.00000508
   42      -16.4426198563      -0.0000000004     0.999847    0.00000439
   43      -16.4426198567      -0.0000000003     0.999847    0.00000380
   44      -16.4426198569      -0.0000000002     0.999847    0.00000329
   45      -16.4426198571      -0.0000000002     0.999847    0.00000285
   46      -16.4426198572      -0.0000000001     0.999847    0.00000247
   47      -16.4426198574      -0.0000000001     0.999847    0.00000214
   48      -16.4426198574      -0.0000000001     0.999847    0.00000185
   49      -16.4426198575      -0.0000000001     0.999847    0.00000161
   50      -16.4426198575      -0.0000000000     0.999847    0.00000140
   51      -16.4426198576      -0.0000000000     0.999847    0.00000121
   52      -16.4426198576      -0.0000000000     0.999847    0.00000105
   53      -16.4426198576      -0.0000000000     0.999847    0.00000092
  
--------------------------------------------------
 Final SA-REKS(2,2) energy:     -16.44261986
  
 State     Energy      FON(1)    FON(2)   Spin
  PPS  -16.50396435   1.999695  0.000305  0.00
  OSS  -16.38127537   1.000000  1.000000  0.00
 Trip  -16.43000669   1.000000  1.000000  1.00
--------------------------------------------------

 Lagrangian Wab:  -0.00545161 -0.00545221

--------------------------------------------------
 SSR: 2SI-2SA-REKS(2,2) Hamiltonian matrix
               PPS           OSS
   PPS   -16.50396435   -0.00761391
   OSS    -0.00761391  -16.38127537
--------------------------------------------------

----------------------------------------------------------------
 SSR: 2SI-2SA-REKS(2,2) states
                    E_n       C_{PPS}    C_{OSS}
 SSR state  1  -16.50443505  -0.998095  -0.061704
 SSR state  2  -16.38080466   0.061704  -0.998095
----------------------------------------------------------------

 unrelaxed SSR FONs for S0:  1.995889  0.004111

Total Energy:                      -16.5044350508 H         -449.1085 eV
Extrapolated to 0:                 -16.5044350508 H         -449.1085 eV

----------------------------------------------------------------------------------
 Solving CP-REKS equation for  1 state vector...
----------------------------------------------------------------------------------
  CG solver: Constructing Y initial guess
  CG solver: Iteration    1    eps =    0.000075537749
  CG solver: Iteration    2    eps =    0.000025847824
  CG solver: Iteration    3    eps =    0.000023547350
  CG solver: Iteration    4    eps =    0.000007449056
  CG solver: Iteration    5    eps =    0.000000731290
  CG solver: Iteration    6    eps =    0.000000390002
  CG solver: Iteration    7    eps =    0.000000023627
  CG solver: Iteration    8    eps =    0.000000005121
  Convergence reached in CG solver after    8 iterations
  CG solver: Calculating converged R, Z, Q2 matrix
----------------------------------------------------------------------------------

----------------------------------------------------------------------------------
 Solving CP-REKS equation for SI between  1 and  2 state vectors...
----------------------------------------------------------------------------------
  CG solver: Constructing Y initial guess
  CG solver: Iteration    1    eps =    0.052442983685
  CG solver: Iteration    2    eps =    0.005180000912
  CG solver: Iteration    3    eps =    0.003315348849
  CG solver: Iteration    4    eps =    0.000486737030
  CG solver: Iteration    5    eps =    0.000130735350
  CG solver: Iteration    6    eps =    0.000041007875
  CG solver: Iteration    7    eps =    0.000006089686
  CG solver: Iteration    8    eps =    0.000000672701
  CG solver: Iteration    9    eps =    0.000000346943
  CG solver: Iteration   10    eps =    0.000000023180
  CG solver: Iteration   11    eps =    0.000000001413
  Convergence reached in CG solver after   11 iterations
  CG solver: Calculating converged R, Z, Q2 matrix
----------------------------------------------------------------------------------

--------------------------------------------------
 Gradient Information
--------------------------------------------------
           1 st state (SSR)
     0.00523129     0.01991214    -0.00846690
     0.01043603    -0.00622008    -0.05048754
     0.00508749     0.00313899     0.01262208
    -0.02019804    -0.02976522    -0.00170623
     0.00399401     0.02227773     0.01581592
     0.04751672    -0.00810159     0.07150686
    -0.04365030     0.03760456    -0.08700924
     0.00326868     0.00736244    -0.00747347
     0.00989793    -0.02134971     0.02373819
    -0.08858361    -0.05066080     0.07098460
     0.00841372    -0.00822911    -0.02782099
     0.06056680     0.03512918     0.01110275
     0.00527047     0.00014574    -0.01190911
    -0.00725119    -0.00124428    -0.01089693

           2 st state (SSR)
     0.03427547     0.02539258     0.00576436
    -0.03963346    -0.02320388    -0.04739609
     0.00567352     0.00220394     0.01091322
    -0.01876983    -0.02914615    -0.00407675
     0.00541095     0.02293205     0.01355955
     0.10892705    -0.00678996     0.07558468
    -0.08933965     0.04631740    -0.10664700
     0.00504795     0.00656203    -0.00848234
     0.01220445    -0.01963414     0.01505388
    -0.04272356    -0.02126931     0.09705079
     0.00985630    -0.00604184    -0.02744181
     0.00527061     0.00713076    -0.00323397
     0.00827080    -0.00055797    -0.01312660
    -0.00447059    -0.00389553    -0.00752192
--------------------------------------------------
 Coupling Information
--------------------------------------------------
 between  1 and  2 states
--------------------------------------------------
 g vector - difference gradient
    -0.01456786    -0.00235673    -0.00638276
     0.02663952     0.00968485    -0.00358346
    -0.00026778     0.00038922     0.00054003
    -0.00075292    -0.00024917     0.00138653
    -0.00069973    -0.00031686     0.00110793
    -0.04080901    -0.00596893    -0.00623659
     0.03662695     0.00041940     0.01143357
    -0.00167343     0.00129530     0.00193082
    -0.00168826     0.00174279     0.00584100
    -0.02407915    -0.01904926    -0.01117939
    -0.00121641     0.00071241    -0.00067394
     0.02510779     0.01200073     0.00677479
    -0.00144520     0.00059897     0.00042854
    -0.00117451     0.00109728    -0.00138707

 h vector - derivative coupling
    -0.00052901    -0.00325914    -0.00634451
    -0.01138184    -0.00908645     0.01632221
    -0.00022144     0.00065981     0.00258593
     0.00026862    -0.00050546    -0.00154834
    -0.00011423    -0.00010323     0.00023296
     0.07950734     0.04276665     0.03369424
    -0.10963001    -0.03874766    -0.01240234
     0.00625991    -0.00718690    -0.01146110
     0.00423915    -0.02100564    -0.01180758
     0.00784087     0.03416731    -0.01574080
     0.00394457    -0.01461877     0.00389062
     0.02217619     0.01696699     0.00361412
    -0.00053555    -0.00196920     0.00148949
    -0.00182458     0.00192169    -0.00252490

 G vector - GDV
    -0.01452209    -0.00274022    -0.00711563
     0.02503475     0.00849190    -0.00154573
    -0.00029302     0.00046753     0.00085443
    -0.00071410    -0.00030953     0.00118526
    -0.00070847    -0.00032716     0.00112819
    -0.03070516    -0.00065582    -0.00203891
     0.02284467    -0.00435642     0.00981888
    -0.00088964     0.00040021     0.00050443
    -0.00115326    -0.00085779     0.00434216
    -0.02293002    -0.01469574    -0.01303310
    -0.00072129    -0.00109364    -0.00018959
     0.02764809     0.01399921     0.00716836
    -0.00150016     0.00035185     0.00060874
    -0.00139030     0.00132562    -0.00168750

 H vector - DCV - non-adiabatic coupling
     0.01026749    -0.02381326    -0.04456851
    -0.11790319    -0.08258620     0.13458908
    -0.00151074     0.00490851     0.02021936
     0.00290637    -0.00380910    -0.01380996
    -0.00021977    -0.00051293     0.00076612
     0.67886586     0.34923613     0.27667826
    -0.91649500    -0.31144663    -0.11094516
     0.05191573    -0.05897997    -0.09392227
     0.03570978    -0.17034932    -0.10059920
     0.08692888     0.29324081    -0.11521396
     0.03287513    -0.11805512     0.03190157
     0.15299433     0.12423837     0.02226097
    -0.00285903    -0.01640358     0.01152923
    -0.01347584     0.01433228    -0.01888552
--------------------------------------------------


--------------------------------------------------------------------------------
DFTB+ running times                          cpu [s]             wall clock [s]
--------------------------------------------------------------------------------
SCC                                    +     0.07  ( 21.4%)      0.08  ( 21.5%)
      Dense to sparse                        0.01  (  4.2%)      0.01  (  3.7%)
Post-SCC processing                    +     0.27  ( 78.2%)      0.27  ( 77.3%)
  Force calculation                          0.27  ( 78.1%)      0.27  ( 77.1%)
--------------------------------------------------------------------------------
Missing                                +     0.00  (  0.4%)      0.00  (  1.1%)
Total                                  =     0.35  (100.0%)      0.35  (100.0%)
--------------------------------------------------------------------------------
