    14
  Step:   600            Position(A)                                  Velocity(au)
C        -5.08496514    -0.87338959     0.73751485     0.00057560     0.00028544    -0.00034257
C        -5.11508911    -0.09004919    -0.31499296    -0.00088254     0.00017463    -0.00007890
H        -4.14149828    -1.51106934     0.81390534     0.00085405     0.00053322     0.00176872
H        -5.92865045    -1.10077248     1.41927209     0.00015051    -0.00202537    -0.00086546
H        -6.04754544     0.25639691    -0.73450962    -0.00081976    -0.00032265     0.00129270
C        -3.82379524     0.32013442    -0.89018818     0.00005993     0.00070543     0.00059053
C        -2.60807320     0.74006471    -0.47447538     0.00010611    -0.00117540    -0.00050339
H        -3.87757914    -0.08973346    -1.91282367     0.00149100    -0.00031214     0.00019926
H        -1.79778128     0.53245849    -1.31413025     0.00084037    -0.00144131     0.00135597
C        -2.14422782     1.57941469     0.56575329     0.00011372    -0.00010209    -0.00046715
H        -2.49014239     2.61418980     0.97274770    -0.00198675    -0.00071372     0.00085361
N        -0.81268508     1.40085253     0.63361213    -0.00003823     0.00020029     0.00061997
H        -0.25304365     1.84462621     1.36164797     0.00160120     0.00075666    -0.00083087
H        -0.40704673     0.65523938     0.08861167    -0.00127566     0.00207643    -0.00283870
