     6
  Step:   600            Position(A)                                  Velocity(au)
C        -0.25378975    -0.04988813    -0.14613879     0.00066510    -0.00011201     0.00082382
N         0.11738829    -0.02530894     1.40941330     0.00029565     0.00004738    -0.00046182
H         0.82236377     0.24045755    -0.68550543    -0.00095711     0.00408473     0.00260673
H         0.59880040     0.99618060     1.65343912     0.00044508    -0.00195847    -0.00409565
H        -0.05789398    -0.62843536     2.49235461    -0.00544374     0.00074431    -0.00332936
H        -1.18337593    -0.33181243    -0.41213442    -0.00607811    -0.00219425     0.00141925
