|===============================================================================
|
|  DFTB+ release 20.1
|
|  Copyright (C) 2006 - 2020  DFTB+ developers group
|
|===============================================================================
|
|  When publishing results obtained with DFTB+, please cite the following
|  reference:
|
|  * DFTB+, a software package for efficient approximate density functional
|    theory based atomistic simulations, J. Chem. Phys. 152, 124101 (2020).
|    [doi: 10.1063/1.5143190]
|
|  You should also cite additional publications crediting the parametrization
|  data you use. Please consult the documentation of the SK-files for the
|  references.
|
|===============================================================================

Reading input file 'dftb_in.hsd'
Parser version: 8

--------------------------------------------------------------------------------
Reading SK-files:
Done.


Processed input in HSD format written to 'dftb_pin.hsd'

Starting initialization...
--------------------------------------------------------------------------------
OpenMP threads:              1
Chosen random seed:          510723980
Mode:                        Static calculation
Self consistent charges:     Yes
SCC-tolerance:                 0.100000E-05
Max. scc iterations:                   1000
Shell resolved Hubbard:      No
Spin polarisation:           No
Nr. of up electrons:             6.000000
Nr. of down electrons:           6.000000
Periodic boundaries:         No
Electronic solver:           Relatively robust
Maximal SCC-cycles:                    1000
Initial charges:             Set automatically (system chrg:   0.100E+01)
Included shells:             C:  s, p
                             N:  s, p
                             H:  s
Spin coupling constants:     C   1(s)-1(s):  -0.455900E-01
                             C   1(s)-2(p):  -0.293000E-01
                             C   2(p)-1(s):  -0.293000E-01
                             C   2(p)-2(p):  -0.275500E-01
                             N   1(s)-1(s):  -0.468700E-01
                             N   1(s)-2(p):  -0.317000E-01
                             N   2(p)-1(s):  -0.317000E-01
                             N   2(p)-2(p):  -0.307200E-01
                             H   1(s)-1(s):  -0.792500E-01
Range separated hybrid:      Yes
  Screening parameter omega:   0.300000E+00
  Range separated algorithm:   MatrixBased
Extra options:
                             Mulliken analysis
                             Force calculation
Force type                   original
                             Eigenvector printing


REKS Calcuation:             Yes
SSR(2,2) Calcuation:         Yes
Energy Functional:           (PPS+OSS)/2
Number of Core Orbitals:                  5
Number of Active Orbitals:                2
Number of Basis:                         12
Number of States:                         2
State-Averaging Weight:          0.500000
                                 0.500000
State of Interest:                        1
Initial Guess:               Diagonalize H0 matrix
Newton-Raphson for FON opt:  Yes
NR max. Iterations:                      50
Level Shifting:              Yes
Shift Value:                     0.300000
W Scale Factor:              C  =    3.000000
                             N  =    3.000000
                             H  =    3.000000
Transition Dipole:           No
Gradient of Microstate:      No
CP-REKS Solver:              Preconditioned Conjugate-Gradient
CG max. Iterations:                     100
CG Tolerance:                  0.100000E-07
Memory for A and Hxc:        Direct Updating Without Saving
Non-Adiabatic Coupling:      Yes

--------------------------------------------------------------------------------

***  Geometry step: 0

  iSCC       reks energy        Diff energy         x_a       SCC error   
    1       -6.2615366867       0.0000000000     0.999219    1.18562212
    2       -6.2747146931      -0.0131780064     0.999687    0.10326454
    3       -6.2787730727      -0.0040583796     0.999828    0.04666542
    4       -6.2807787666      -0.0020056940     0.999888    0.02348783
    5       -6.2819527757      -0.0011740091     0.999916    0.01244542
    6       -6.2827041265      -0.0007513508     0.999932    0.00711846
    7       -6.2832039528      -0.0004998264     0.999941    0.00645577
    8       -6.2835398317      -0.0003358788     0.999947    0.00562114
    9       -6.2837650307      -0.0002251990     0.999951    0.00476774
   10       -6.2839151141      -0.0001500834     0.999953    0.00397079
   11       -6.2840145378      -0.0000994237     0.999955    0.00326346
   12       -6.2840800996      -0.0000655618     0.999956    0.00267481
   13       -6.2841232074      -0.0000431078     0.999956    0.00218416
   14       -6.2841515129      -0.0000283054     0.999957    0.00180265
   15       -6.2841700958      -0.0000185829     0.999957    0.00152670
   16       -6.2841823040      -0.0000122082     0.999958    0.00128653
   17       -6.2841903338      -0.0000080299     0.999958    0.00107961
   18       -6.2841956232      -0.0000052894     0.999958    0.00090274
   19       -6.2841991128      -0.0000034896     0.999958    0.00075254
   20       -6.2842014185      -0.0000023057     0.999958    0.00062568
   21       -6.2842029442      -0.0000015257     0.999958    0.00051901
   22       -6.2842039550      -0.0000010108     0.999958    0.00042967
   23       -6.2842046253      -0.0000006704     0.999958    0.00035508
   24       -6.2842050704      -0.0000004450     0.999958    0.00029300
   25       -6.2842053660      -0.0000002957     0.999958    0.00024145
   26       -6.2842055626      -0.0000001966     0.999958    0.00019874
   27       -6.2842056933      -0.0000001307     0.999958    0.00016341
   28       -6.2842057803      -0.0000000870     0.999958    0.00013425
   29       -6.2842058382      -0.0000000579     0.999958    0.00011020
   30       -6.2842058768      -0.0000000386     0.999958    0.00009040
   31       -6.2842059024      -0.0000000257     0.999958    0.00007411
   32       -6.2842059195      -0.0000000171     0.999958    0.00006073
   33       -6.2842059309      -0.0000000114     0.999958    0.00004974
   34       -6.2842059385      -0.0000000076     0.999958    0.00004072
   35       -6.2842059436      -0.0000000051     0.999958    0.00003332
   36       -6.2842059469      -0.0000000034     0.999958    0.00002726
   37       -6.2842059492      -0.0000000022     0.999958    0.00002230
   38       -6.2842059507      -0.0000000015     0.999958    0.00001823
   39       -6.2842059517      -0.0000000010     0.999958    0.00001491
   40       -6.2842059523      -0.0000000007     0.999958    0.00001219
   41       -6.2842059528      -0.0000000004     0.999958    0.00000996
   42       -6.2842059531      -0.0000000003     0.999958    0.00000814
   43       -6.2842059533      -0.0000000002     0.999958    0.00000665
   44       -6.2842059534      -0.0000000001     0.999958    0.00000543
   45       -6.2842059535      -0.0000000001     0.999958    0.00000444
   46       -6.2842059535      -0.0000000001     0.999958    0.00000363
   47       -6.2842059536      -0.0000000000     0.999958    0.00000297
   48       -6.2842059536      -0.0000000000     0.999958    0.00000242
   49       -6.2842059536      -0.0000000000     0.999958    0.00000198
   50       -6.2842059536      -0.0000000000     0.999958    0.00000162
   51       -6.2842059536      -0.0000000000     0.999958    0.00000132
   52       -6.2842059537      -0.0000000000     0.999958    0.00000108
   53       -6.2842059537      -0.0000000000     0.999958    0.00000088
  
--------------------------------------------------
 Final SA-REKS(2,2) energy:      -6.28420595
  
 State     Energy      FON(1)    FON(2)   Spin
  PPS   -6.41139077   1.999915  0.000085  0.00
  OSS   -6.15702113   1.000000  1.000000  0.00
 Trip   -6.23718367   1.000000  1.000000  1.00
--------------------------------------------------

 Lagrangian Wab:   0.00502939  0.00502920

--------------------------------------------------
 SSR: 2SI-2SA-REKS(2,2) Hamiltonian matrix
               PPS           OSS
   PPS    -6.41139077    0.00706622
   OSS     0.00706622   -6.15702113
--------------------------------------------------

----------------------------------------------------------------
 SSR: 2SI-2SA-REKS(2,2) states
                    E_n       C_{PPS}    C_{OSS}
 SSR state  1   -6.41158692  -0.999615   0.027747
 SSR state  2   -6.15682499  -0.027747  -0.999615
----------------------------------------------------------------

 unrelaxed SSR FONs for S0:  1.999146  0.000854

Total Energy:                       -6.4115869171 H         -174.4682 eV
Extrapolated to 0:                  -6.4115869171 H         -174.4682 eV

----------------------------------------------------------------------------------
 Solving CP-REKS equation for  1 state vector...
----------------------------------------------------------------------------------
  CG solver: Constructing Y initial guess
  CG solver: Iteration    1    eps =    0.000083333677
  CG solver: Iteration    2    eps =    0.000039950817
  CG solver: Iteration    3    eps =    0.000001762867
  CG solver: Iteration    4    eps =    0.000000517236
  CG solver: Iteration    5    eps =    0.000000016706
  CG solver: Iteration    6    eps =    0.000000001797
  Convergence reached in CG solver after    6 iterations
  CG solver: Calculating converged R, Z, Q2 matrix
----------------------------------------------------------------------------------

----------------------------------------------------------------------------------
 Solving CP-REKS equation for SI between  1 and  2 state vectors...
----------------------------------------------------------------------------------
  CG solver: Constructing Y initial guess
  CG solver: Iteration    1    eps =    0.001658813439
  CG solver: Iteration    2    eps =    0.001912863389
  CG solver: Iteration    3    eps =    0.000348467204
  CG solver: Iteration    4    eps =    0.000004323908
  CG solver: Iteration    5    eps =    0.000000599690
  CG solver: Iteration    6    eps =    0.000000010553
  CG solver: Iteration    7    eps =    0.000000000327
  Convergence reached in CG solver after    7 iterations
  CG solver: Calculating converged R, Z, Q2 matrix
----------------------------------------------------------------------------------

--------------------------------------------------
 Gradient Information
--------------------------------------------------
           1 st state (SSR)
     0.00290338    -0.00912119     0.00800863
    -0.01243832    -0.00020342    -0.01022088
     0.01094119     0.00060738     0.01008877
     0.01564196     0.00168364    -0.00075614
    -0.00660145     0.00522522    -0.00378558
    -0.01044676     0.00180837    -0.00333480

           2 st state (SSR)
    -0.00398675     0.00100189     0.11461948
     0.01113180     0.00958666    -0.13243457
    -0.01050355    -0.01523471     0.02420414
    -0.01244273     0.00603248    -0.00805502
     0.00474566    -0.00628006    -0.01280261
     0.01105557     0.00489374     0.01446858
--------------------------------------------------
 Coupling Information
--------------------------------------------------
 between  1 and  2 states
--------------------------------------------------
 g vector - difference gradient
     0.00340632    -0.00485528    -0.05396365
    -0.01204267    -0.00515406     0.06164750
     0.01136801     0.00775849    -0.00707593
     0.01474629    -0.00207472     0.00363231
    -0.00623087     0.00581637     0.00460389
    -0.01124709    -0.00149080    -0.00884413

 h vector - derivative coupling
    -0.00079298     0.00385293    -0.01036778
    -0.00430953    -0.00452624     0.00803517
     0.01132325    -0.00314565    -0.00013237
     0.01228055     0.00185484    -0.00040974
    -0.00987361     0.00098737     0.00159161
    -0.00862767     0.00097674     0.00128310

 G vector - GDV
     0.00344507    -0.00506154    -0.05330542
    -0.01178506    -0.00489504     0.06110684
     0.01072237     0.00792105    -0.00705769
     0.01404234    -0.00217442     0.00364944
    -0.00567356     0.00575264     0.00450851
    -0.01075116    -0.00154269    -0.00890169

 H vector - DCV - non-adiabatic coupling
    -0.00236614     0.01404316    -0.05238361
    -0.01951209    -0.01886147     0.04491479
     0.04685328    -0.01063902    -0.00205952
     0.05134071     0.00681771    -0.00081492
    -0.04005329     0.00513619     0.00724029
    -0.03626248     0.00350343     0.00310296
--------------------------------------------------


--------------------------------------------------------------------------------
DFTB+ running times                          cpu [s]             wall clock [s]
--------------------------------------------------------------------------------
SCC                                    +     0.02  ( 67.4%)      0.03  ( 64.1%)
Post-SCC processing                    +     0.01  ( 29.0%)      0.01  ( 28.2%)
  Force calculation                          0.01  ( 28.4%)      0.01  ( 25.6%)
--------------------------------------------------------------------------------
Missing                                +     0.00  (  3.7%)      0.00  (  7.7%)
Total                                  =     0.03  (100.0%)      0.04  (100.0%)
--------------------------------------------------------------------------------
