     6
  Step:   300            Position(A)                                  Velocity(au)
C        -0.06996792     0.02127632     0.01800846    -0.00001924    -0.00001551    -0.00009099
N         0.01197875    -0.05641269     1.30383584     0.00000951    -0.00000255     0.00009750
H         0.17365193     0.91715247    -0.55987809     0.00115004    -0.00003706     0.00056384
H        -0.21975274    -0.93936434     1.76906988     0.00134277    -0.00052295    -0.00005216
H        -0.16879457     0.77223400     1.87826641    -0.00118597     0.00042199    -0.00091106
H        -0.33075863    -0.88940274    -0.52856300    -0.00120965     0.00035828     0.00012872
