     6
  Step:     0            Position(A)                                  Velocity(au)
C        -0.03771173     0.02104479     0.00571995    -0.00005973    -0.00012443     0.00004331
N        -0.04947204    -0.05225582     1.31187151     0.00021473     0.00012279    -0.00004890
H         0.96318590    -0.02022775    -0.52401322     0.00068955     0.00048455    -0.00012738
H         0.85963882    -0.16057874     1.78802440    -0.00181361    -0.00051966    -0.00044732
H        -0.91992900    -0.06633042     1.86582140    -0.00086392    -0.00046404     0.00105927
H        -0.97897706     0.05275295    -0.53617900    -0.00028421     0.00027554    -0.00032110
     6
  Step:     1            Position(A)                                  Velocity(au)
C        -0.03801021     0.02039965     0.00564087    -0.00004933    -0.00011152    -0.00007241
N        -0.04829050    -0.05158341     1.31186304     0.00021453     0.00012335     0.00004568
H         0.96672047    -0.01767113    -0.52460072     0.00059885     0.00045023    -0.00008543
H         0.84973087    -0.16353959     1.78569724    -0.00178624    -0.00056624    -0.00039284
H        -0.92471819    -0.06897976     1.87163485    -0.00087164    -0.00050436     0.00105529
H        -0.98067680     0.05415003    -0.53801772    -0.00033432     0.00023503    -0.00034901
     6
  Step:     2            Position(A)                                  Velocity(au)
C        -0.03825136     0.01982485     0.00492785    -0.00003885    -0.00009873    -0.00018791
N        -0.04712517    -0.05090637     1.31237124     0.00020875     0.00012442     0.00013948
H         0.96973714    -0.01530236    -0.52494775     0.00050075     0.00041586    -0.00004016
H         0.84009796    -0.16677317     1.78372690    -0.00171178    -0.00061909    -0.00031614
H        -0.92946446    -0.07184793     1.87736586    -0.00084901    -0.00054349     0.00102963
H        -0.98263446     0.05532405    -0.53999701    -0.00037793     0.00019422    -0.00037245
     6
  Step:     3            Position(A)                                  Velocity(au)
C        -0.03843531     0.01931931     0.00358475    -0.00002850    -0.00008621    -0.00030209
N        -0.04600627    -0.05022197     1.31338926     0.00019757     0.00012597     0.00023148
H         0.97219974    -0.01312078    -0.52504014     0.00039691     0.00038176     0.00000694
H         0.83100038    -0.17031379     1.78223798    -0.00158996    -0.00067806    -0.00021660
H        -0.93400819    -0.07492666     1.88290118    -0.00079863    -0.00058075     0.00098438
H        -0.98481219     0.05627521    -0.54209311    -0.00041422     0.00015377    -0.00039166
     6
  Step:     4            Position(A)                                  Velocity(au)
C        -0.03856327     0.01888130     0.00162143    -0.00001846    -0.00007405    -0.00041379
N        -0.04496272    -0.04952760     1.31490480     0.00018129     0.00012796     0.00032066
H         0.97408132    -0.01112399    -0.52487178     0.00028908     0.00034819     0.00005441
H         0.82269568    -0.17419457     1.78135616    -0.00142225    -0.00074273    -0.00009466
H        -0.93820556    -0.07820426     1.88813993    -0.00072358    -0.00061552     0.00092184
H        -0.98716818     0.05700709    -0.54428376    -0.00044257     0.00011424    -0.00040688
     6
  Step:     5            Position(A)                                  Velocity(au)
C        -0.03863744     0.01850852    -0.00094586    -0.00000891    -0.00006235    -0.00052174
N        -0.04402128    -0.04882090     1.31690022     0.00016040     0.00013033     0.00040602
H         0.97536487    -0.00930848    -0.52444444     0.00017920     0.00031527     0.00010078
H         0.81542819    -0.17844592     1.78120159    -0.00121216    -0.00081236     0.00004792
H        -0.94193072    -0.08166595     1.89299445    -0.00062731    -0.00064721     0.00084448
H        -0.98965788     0.05752600    -0.54654800    -0.00046256     0.00007606    -0.00041827
     6
  Step:     6            Position(A)                                  Velocity(au)
C        -0.03866089     0.01819833    -0.00409398    -0.00000001    -0.00005115    -0.00062453
N        -0.04320556    -0.04809986     1.31935255     0.00013556     0.00013298     0.00048651
H         0.97604443    -0.00767032    -0.52376774     0.00006945     0.00028303     0.00014462
H         0.80941695    -0.18309361     1.78188107    -0.00096557    -0.00088577     0.00020781
H        -0.94507747    -0.08529419     1.89739087    -0.00051355    -0.00067531     0.00075483
H        -0.99223528     0.05784029    -0.54886579    -0.00047399     0.00003957    -0.00042593
     6
  Step:     7            Position(A)                                  Velocity(au)
C        -0.03863757     0.01794780    -0.00779229     0.00000808    -0.00004051    -0.00072065
N        -0.04253517    -0.04736306     1.32223354     0.00010761     0.00013578     0.00056109
H         0.97612623    -0.00620572    -0.52285908    -0.00003776     0.00025140     0.00018445
H         0.80484312    -0.18815620     1.78347973    -0.00069068    -0.00096127     0.00038018
H        -0.94756055    -0.08906905     1.90126920    -0.00038633    -0.00069934     0.00065547
H        -0.99485395     0.05795976    -0.55121728    -0.00047691     0.00000501    -0.00042992
     6
  Step:     8            Position(A)                                  Velocity(au)
C        -0.03857221     0.01775384    -0.01200199     0.00001521    -0.00003045    -0.00080844
N        -0.04202468    -0.04660987     1.32550967     0.00007757     0.00013855     0.00062874
H         0.97563004    -0.00491155    -0.52174365    -0.00013978     0.00022025     0.00021884
H         0.80183777    -0.19364201     1.78605293    -0.00039788    -0.00103653     0.00055873
H        -0.94931687    -0.09296832     1.90458364    -0.00024994    -0.00071883     0.00054912
H        -0.99746857     0.05789523    -0.55358350    -0.00047160    -0.00002743    -0.00043039
     6
  Step:     9            Position(A)                                  Velocity(au)
C        -0.03847040     0.01761325    -0.01667562     0.00002123    -0.00002099    -0.00088620
N        -0.04168281    -0.04584065     1.32914223     0.00004660     0.00014107     0.00068843
H         0.97459030    -0.00378557    -0.52045447    -0.00023375     0.00018942     0.00024634
H         0.80047113    -0.19954582     1.78961917    -0.00009932    -0.00110868     0.00073605
H        -0.95030693    -0.09696772     1.90730304    -0.00010898    -0.00073339     0.00043863
H        -1.00003596     0.05765839    -0.55594653    -0.00045853    -0.00005755    -0.00042754
     6
  Step:    10            Position(A)                                  Velocity(au)
C        -0.03833849     0.01752275    -0.02175681     0.00002599    -0.00001218    -0.00095228
N        -0.04151172    -0.04505705     1.33308745     0.00001597     0.00014309     0.00073920
H         0.97305701    -0.00282650    -0.51903213    -0.00031676     0.00015880     0.00026562
H         0.80074456    -0.20584566     1.79415497     0.00019179    -0.00117434     0.00090409
H        -0.95051641    -0.10104102     1.90941177     0.00003165    -0.00074267     0.00032705
H        -1.00251583     0.05726177    -0.55828958    -0.00043835    -0.00008517    -0.00042158
     6
  Step:    11            Position(A)                                  Velocity(au)
C        -0.03818367     0.01747892    -0.02718057     0.00002936    -0.00000402    -0.00100516
N        -0.04150659    -0.04426212     1.33729668    -0.00001302     0.00014437     0.00078023
H         0.97109602    -0.00203376    -0.51752428    -0.00038594     0.00012833     0.00027555
H         0.80258684    -0.21250051     1.79959258     0.00046213    -0.00122998     0.00105482
H        -0.94995783    -0.10516040     1.91091083     0.00016679    -0.00074647     0.00021763
H        -1.00487163     0.05671885    -0.56059715    -0.00041189    -0.00011008    -0.00041281
     6
  Step:    12            Position(A)                                  Velocity(au)
C        -0.03801378     0.01747823    -0.03287409     0.00003123     0.00000343    -0.00104372
N        -0.04165568    -0.04346031     1.34171696    -0.00003914     0.00014466     0.00081090
H         0.96878837    -0.00140716    -0.51598448    -0.00043880     0.00009803     0.00027530
H         0.80585584    -0.21944958     1.80582149     0.00069949    -0.00127225     0.00118105
H        -0.94867168    -0.10929720     1.91181884     0.00029129    -0.00074485     0.00011374
H        -1.00707147     0.05604421    -0.56285533    -0.00038019    -0.00013209    -0.00040162
     6
  Step:    13            Position(A)                                  Velocity(au)
C        -0.03783721     0.01751697    -0.03875880     0.00003156     0.00001016    -0.00106749
N        -0.04194080    -0.04265733     1.34629219    -0.00006134     0.00014383     0.00083104
H         0.96622833    -0.00094634    -0.51447037    -0.00047342     0.00006800     0.00026448
H         0.81034649    -0.22661390     1.81269422     0.00089402    -0.00129854     0.00127732
H        -0.94672644    -0.11342323     1.91217253     0.00040032    -0.00073822     0.00001863
H        -1.00908919     0.05525356    -0.56505236    -0.00034451    -0.00015102    -0.00038854
     6
  Step:    14            Position(A)                                  Velocity(au)
C        -0.03766254     0.01759127    -0.04475395     0.00005134     0.00002730    -0.00182075
N        -0.04233837    -0.04185964     1.35096538    -0.00013332     0.00023980     0.00142199
H         0.96351979    -0.00065035    -0.51304112    -0.00082648     0.00006498     0.00041131
H         0.81580524    -0.23390079     1.82003653     0.00175724    -0.00221063     0.00226666
H        -0.94421665    -0.11751266     1.91202621     0.00082809    -0.00122992    -0.00010948
H        -1.01090550     0.05436350    -0.56717930    -0.00051791    -0.00028207    -0.00063282
     6
  Step:    15            Position(A)                                  Velocity(au)
C        -0.03738815     0.01773506    -0.05459141     0.00004504     0.00002344    -0.00165556
N        -0.04311867    -0.04053834     1.35867547    -0.00013896     0.00022715     0.00130310
H         0.95920086    -0.00026263    -0.51114218    -0.00069084     0.00007226     0.00025758
H         0.82591256    -0.24613409     1.83277972     0.00177980    -0.00210836     0.00221680
H        -0.93943277    -0.12419998     1.91126223     0.00084712    -0.00113616    -0.00014932
H        -1.01390383     0.05282173    -0.57097562    -0.00054166    -0.00026356    -0.00070563
     6
  Step:    16            Position(A)                                  Velocity(au)
C        -0.03715260     0.01785666    -0.06350005     0.00003729     0.00001929    -0.00147730
N        -0.04391182    -0.03928761     1.36572053    -0.00013672     0.00021250     0.00117466
H         0.95569735     0.00016791    -0.51012449    -0.00053482     0.00007928     0.00010018
H         0.83595821    -0.25777402     1.84513768     0.00172114    -0.00197932     0.00211008
H        -0.93462458    -0.13037752     1.91033539     0.00082818    -0.00103848    -0.00016583
H        -1.01703878     0.05137919    -0.57516925    -0.00055892    -0.00024438    -0.00076422
     6
  Step:    17            Position(A)                                  Velocity(au)
C        -0.03696352     0.01795475    -0.07141391     0.00002880     0.00001520    -0.00130529
N        -0.04467552    -0.03811851     1.37205162    -0.00012894     0.00019825     0.00105140
H         0.95311073     0.00064021    -0.51000138    -0.00037096     0.00008688    -0.00005532
H         0.84551168    -0.26867320     1.85680783     0.00161054    -0.00184651     0.00197609
H        -0.93000198    -0.13602543     1.90937383     0.00078239    -0.00094896    -0.00016245
H        -1.02026838     0.05003886    -0.57967797    -0.00057332    -0.00022742    -0.00081506
     6
  Step:    18            Position(A)                                  Velocity(au)
C        -0.03682449     0.01802982    -0.07837189     0.00001999     0.00001131    -0.00114987
N        -0.04538087    -0.03702889     1.37769970    -0.00011750     0.00018585     0.00094134
H         0.95147081     0.00115776    -0.51075474    -0.00020651     0.00009584    -0.00020771
H         0.85430791    -0.27881226     1.86765220     0.00147038    -0.00172464     0.00183543
H        -0.92571040    -0.14118943     1.90848446     0.00071851    -0.00087427    -0.00014278
H        -1.02357094     0.04878813    -0.58445559    -0.00058772    -0.00021435    -0.00086422
     6
  Step:    19            Position(A)                                  Velocity(au)
C        -0.03673654     0.01808312    -0.08446874     0.00001106     0.00000762    -0.00101242
N        -0.04600955    -0.03600846     1.38273896    -0.00010342     0.00017566     0.00084552
H         0.95076617     0.00172833    -0.51235952    -0.00004447     0.00010665    -0.00035774
H         0.86220531    -0.28825346     1.87764600     0.00131171    -0.00161760     0.00169610
H        -0.92184452    -0.14595129     1.90775278     0.00064071    -0.00081527    -0.00010938
H        -1.02694088     0.04760525    -0.58948975    -0.00060252    -0.00020555    -0.00091452
     6
  Step:    20            Position(A)                                  Velocity(au)
C        -0.03669963     0.01811588    -0.08980593     0.00000208     0.00000408    -0.00088958
N        -0.04654885    -0.03504508     1.38724879    -0.00008709     0.00016727     0.00076118
H         0.95096853     0.00236226    -0.51479496     0.00011333     0.00011942    -0.00050561
H         0.86912205    -0.29708103     1.88680749     0.00113800    -0.00152251     0.00155780
H        -0.91847436    -0.15039694     1.90724911     0.00055015    -0.00076940    -0.00006406
H        -1.03037561     0.04646667    -0.59478400    -0.00061602    -0.00020054    -0.00096545
     6
  Step:    21            Position(A)                                  Velocity(au)
C        -0.03671315     0.01812897    -0.09446597    -0.00000681     0.00000063    -0.00077735
N        -0.04698827    -0.03412867     1.39129320    -0.00006876     0.00016013     0.00068498
H         0.95203981     0.00307039    -0.51804166     0.00026443     0.00013403    -0.00065020
H         0.87499430    -0.30536368     1.89515275     0.00095041    -0.00143482     0.00141793
H        -0.91566186    -0.15459788     1.90703288     0.00044760    -0.00073331    -0.00000862
H        -1.03386380     0.04535153    -0.60033958    -0.00062571    -0.00019861    -0.00101491
     6
  Step:    22            Position(A)                                  Velocity(au)
C        -0.03677590     0.01812295    -0.09850902    -0.00001546    -0.00000276    -0.00067280
N        -0.04731868    -0.03325230     1.39491775    -0.00004874     0.00015377     0.00061442
H         0.95392905     0.00386280    -0.52207456     0.00040556     0.00015026    -0.00078957
H         0.87976271    -0.31314511     1.90268243     0.00075039    -0.00135093     0.00127459
H        -0.91346310    -0.15860701     1.90715265     0.00033483    -0.00070420     0.00005472
H        -1.03738097     0.04424301    -0.60614679    -0.00062929    -0.00019913    -0.00106076
     6
  Step:    23            Position(A)                                  Velocity(au)
C        -0.03688575     0.01809818    -0.10197883    -0.00002367    -0.00000610    -0.00057418
N        -0.04753250    -0.03241158     1.39815412    -0.00002743     0.00014788     0.00054794
H         0.95656854     0.00474829    -0.52685846     0.00053327     0.00016789    -0.00092159
H         0.88337354    -0.32044891     1.90938553     0.00054023    -0.00126869     0.00112724
H        -0.91192301    -0.16246140     1.90764397     0.00021475    -0.00067996     0.00012331
H        -1.04089075     0.04312789    -0.61218458    -0.00062503    -0.00020159    -0.00110137
     6
  Step:    24            Position(A)                                  Velocity(au)
C        -0.03703968     0.01805496    -0.10490926    -0.00003126    -0.00000940    -0.00048054
N        -0.04762444    -0.03160389     1.40102550    -0.00000533     0.00014227     0.00048470
H         0.95987325     0.00573423    -0.53234730     0.00064443     0.00018667    -0.00104437
H         0.88578452    -0.32728683     1.91524746     0.00032296    -0.00118712     0.00097645
H        -0.91106939    -0.16618633     1.90852717     0.00009111    -0.00065901     0.00019421
H        -1.04434803     0.04199592    -0.61842346    -0.00061184    -0.00020557    -0.00113575
     6
  Step:    25            Position(A)                                  Velocity(au)
C        -0.03723379     0.01799352    -0.10732864    -0.00003810    -0.00001266    -0.00039135
N        -0.04759188    -0.03082768     1.40355028     0.00001703     0.00013682     0.00042423
H         0.96374292     0.00682651    -0.53848538     0.00073653     0.00020636    -0.00115636
H         0.88696907    -0.33366511     1.92025629     0.00010191    -0.00110597     0.00082340
H        -0.91090871    -0.16979811     1.90980614    -0.00003191    -0.00064008     0.00026440
H        -1.04770230     0.04083924    -0.62482887    -0.00058908    -0.00021072    -0.00116338
     6
  Step:    26            Position(A)                                  Velocity(au)
C        -0.03746350     0.01791410    -0.10926221    -0.00004409    -0.00001589    -0.00030630
N        -0.04743505    -0.03008203     1.40574422     0.00003913     0.00013146     0.00036628
H         0.96806571     0.00802952    -0.54520946     0.00080785     0.00022668    -0.00125641
H         0.88691809    -0.33958849     1.92440620    -0.00011957    -0.00102536     0.00066959
H        -0.91142437    -0.17330600     1.91146805    -0.00015008    -0.00062213     0.00033089
H        -1.05090042     0.03965207    -0.63136379    -0.00055656    -0.00021670    -0.00118409
     6
  Step:    27            Position(A)                                  Velocity(au)
C        -0.03772382     0.01781693    -0.11073334    -0.00004915    -0.00001907    -0.00022520
N        -0.04715698    -0.02936644     1.40762164     0.00006046     0.00012614     0.00031070
H         0.97272254     0.00934617    -0.55245097     0.00085743     0.00024739    -0.00134378
H         0.88564006    -0.34506239     1.92769911    -0.00033822    -0.00094566     0.00051660
H        -0.91257690    -0.17671332     1.91348416    -0.00025937    -0.00060419     0.00039095
H        -1.05388870     0.03843053    -0.63799052    -0.00051435    -0.00022320    -0.00119791
     6
  Step:    28            Position(A)                                  Velocity(au)
C        -0.03800954     0.01770222    -0.11176402    -0.00005328    -0.00002222    -0.00014785
N        -0.04676334    -0.02868065     1.40919592     0.00008058     0.00012084     0.00025738
H         0.97759132     0.01077787    -0.56013807     0.00088502     0.00026821    -0.00141798
H         0.88316066    -0.35009418     1.93014529    -0.00055092    -0.00086735     0.00036601
H        -0.91430581    -0.18001824     1.91581130    -0.00035622    -0.00058544     0.00044214
H        -1.05661452     0.03717246    -0.64467185    -0.00046273    -0.00022993    -0.00120498
     6
  Step:    29            Position(A)                                  Velocity(au)
C        -0.03831549     0.01757020    -0.11237518    -0.00005649    -0.00002532    -0.00007412
N        -0.04626216    -0.02802454     1.41047974     0.00009906     0.00011554     0.00020622
H         0.98255033     0.01232458    -0.56819714     0.00089092     0.00028890    -0.00147881
H         0.87952233    -0.35469398     1.93176352    -0.00075460    -0.00079103     0.00021944
H        -0.91653254    -0.18321439     1.91839397    -0.00043764    -0.00056512     0.00048244
H        -1.05902715     0.03587728    -0.65137142    -0.00040215    -0.00023662    -0.00120551
     6
  Step:    30            Position(A)                                  Velocity(au)
C        -0.03863663     0.01742113    -0.11258683    -0.00005881    -0.00002838    -0.00000387
N        -0.04566365    -0.02739804     1.41148513     0.00011555     0.00011024     0.00015711
H         0.98748129     0.01398489    -0.57655413     0.00087598     0.00030920    -0.00152625
H         0.87478398    -0.35887532     1.93258128    -0.00094624    -0.00071741     0.00007851
H        -0.91916401    -0.18629152     1.92116676    -0.00050136    -0.00054259     0.00051027
H        -1.06107869     0.03454579    -0.65805407    -0.00033318    -0.00024304    -0.00119971
     6
  Step:    31            Position(A)                                  Velocity(au)
C        -0.03896822     0.01725529    -0.11241815    -0.00006032    -0.00003138     0.00006301
N        -0.04497983    -0.02680106     1.41222342     0.00012971     0.00010496     0.00010996
H         0.99227201     0.01575614    -0.58513566     0.00084144     0.00032890    -0.00156049
H         0.86902091    -0.36265581     1.93263488    -0.00112282    -0.00064728    -0.00005512
H        -0.92209666    -0.18923614     1.92405699    -0.00054583    -0.00051736     0.00052456
H        -1.06272483     0.03317999    -0.66468589    -0.00025655    -0.00024900    -0.00118781
     6
  Step:    32            Position(A)                                  Velocity(au)
C        -0.03930591     0.01707297    -0.11188765    -0.00006106    -0.00003432     0.00012662
N        -0.04422434    -0.02623333     1.41270526     0.00014129     0.00009974     0.00006463
H         0.99681816     0.01763450    -0.59386978     0.00078887     0.00034780    -0.00158184
H         0.86232484    -0.36605774     1.93196965    -0.00128135    -0.00058158    -0.00017978
H        -0.92522065    -0.19203224     1.92698746    -0.00057026    -0.00048903     0.00052474
H        -1.06392549     0.03178285    -0.67123430    -0.00017309    -0.00025433    -0.00117005
     6
  Step:    33            Position(A)                                  Velocity(au)
C        -0.03964574     0.01687454    -0.11101326    -0.00006113    -0.00003718     0.00018702
N        -0.04341211    -0.02569439     1.41294053     0.00015008     0.00009463     0.00002101
H         1.00102486     0.01961516    -0.60268679     0.00072004     0.00036573    -0.00159072
H         0.85480383    -0.36910872     1.93064015    -0.00141889    -0.00052132    -0.00029378
H        -0.92842397    -0.19466210     1.92987919    -0.00057463    -0.00045738     0.00051071
H        -1.06464539     0.03035813    -0.67766809    -0.00008372    -0.00025891    -0.00114670
     6
  Step:    34            Position(A)                                  Velocity(au)
C        -0.03998416     0.01666042    -0.10981255    -0.00006058    -0.00003996     0.00024427
N        -0.04255908    -0.02518342     1.41293836     0.00015593     0.00008968    -0.00002103
H         1.00480732     0.02169246    -0.61151959     0.00063679     0.00038255    -0.00158766
H         0.84658162    -0.37184206     1.92871000    -0.00153269    -0.00046757    -0.00039549
H        -0.93159640    -0.19710708     1.93265397    -0.00055953    -0.00042233     0.00048281
H        -1.06485445     0.02891009    -0.68395744     0.00001056    -0.00026267    -0.00111802
     6
  Step:    35            Position(A)                                  Velocity(au)
C        -0.04031799     0.01643108    -0.10830281    -0.00005949    -0.00004265     0.00029838
N        -0.04168190    -0.02469924     1.41270712     0.00015872     0.00008499    -0.00006162
H         1.00809093     0.02386003    -0.62030401     0.00054105     0.00039814    -0.00157323
H         0.83779660    -0.37429706     1.92625160    -0.00162024    -0.00042142    -0.00048337
H        -0.93463275    -0.19934840     1.93523659    -0.00052616    -0.00038392     0.00044177
H        -1.06452826     0.02744341    -0.69007406     0.00010868    -0.00026556    -0.00108433
     6
  Step:    36            Position(A)                                  Velocity(au)
C        -0.04064443     0.01618707    -0.10650117    -0.00005792    -0.00004523     0.00034937
N        -0.04079761    -0.02424023     1.41225450     0.00015842     0.00008063    -0.00010087
H         1.01081188     0.02611099    -0.62897937     0.00043478     0.00041243    -0.00154814
H         0.82860017    -0.37651902     1.92334554    -0.00167931    -0.00038399    -0.00055596
H        -0.93743576    -0.20136781     1.93755678    -0.00047619    -0.00034233     0.00038867
H        -1.06364832     0.02596289    -0.69599139     0.00020954    -0.00026756    -0.00104598
     6
  Step:    37            Position(A)                                  Velocity(au)
C        -0.04096098     0.01592899    -0.10442467    -0.00005593    -0.00004769     0.00039726
N        -0.03992341    -0.02380424     1.41158744     0.00015503     0.00007670    -0.00013890
H         1.01291717     0.02843810    -0.63748888     0.00031997     0.00042537    -0.00151314
H         0.81915574    -0.37855949     1.92008026    -0.00170800    -0.00035636    -0.00061197
H        -0.93991863    -0.20314833     1.93955098    -0.00041172    -0.00029784     0.00032485
H        -1.06220232     0.02447338    -0.70168477     0.00031200    -0.00026869    -0.00100335
     6
  Step:    38            Position(A)                                  Velocity(au)
C        -0.04126548     0.01565752    -0.10209030    -0.00005358    -0.00005003     0.00044206
N        -0.03907634    -0.02338862     1.41071227     0.00014862     0.00007329    -0.00017581
H         1.01436459     0.03083392    -0.64578003     0.00019856     0.00043695    -0.00146907
H         0.80963601    -0.38047573     1.91655079    -0.00170508    -0.00033945    -0.00065042
H        -0.94200714    -0.20467480     1.94116368    -0.00033515    -0.00025085     0.00025189
H        -1.06018416     0.02297958    -0.70713173     0.00041493    -0.00026898    -0.00095687
     6
  Step:    39            Position(A)                                  Velocity(au)
C        -0.04155606     0.01537338    -0.09951496    -0.00005091    -0.00005222     0.00048379
N        -0.03827283    -0.02299026     1.40963479     0.00013934     0.00007047    -0.00021168
H         1.01512243     0.03329096    -0.65380492     0.00007239     0.00044717    -0.00141680
H         0.80021855    -0.38232949     1.91285646    -0.00167022    -0.00033388    -0.00067084
H        -0.94364094    -0.20593433     1.94234851    -0.00024907    -0.00020180     0.00017149
H        -1.05759395     0.02148596    -0.71231216     0.00051723    -0.00026850    -0.00090702
     6
  Step:    40            Position(A)                                  Velocity(au)
C        -0.04183106     0.01507733    -0.09671552    -0.00004796    -0.00005428     0.00052245
N        -0.03752830    -0.02260569     1.40836049     0.00012743     0.00006830    -0.00024656
H         1.01516883     0.03580187    -0.66152039    -0.00005679     0.00045607    -0.00135720
H         0.79108013    -0.38418505     1.90909791    -0.00160409    -0.00033992    -0.00067329
H        -0.94477422    -0.20691673     1.94306887    -0.00015616    -0.00015120     0.00008546
H        -1.05443786     0.01999662    -0.71720856     0.00061782    -0.00026731    -0.00085428
     6
  Step:    41            Position(A)                                  Velocity(au)
C        -0.04208907     0.01477018    -0.09370876    -0.00004477    -0.00005618     0.00055807
N        -0.03685670    -0.02223122     1.40689472     0.00011317     0.00006680    -0.00028043
H         1.01449124     0.03835949    -0.66888808    -0.00018737     0.00046371    -0.00129117
H         0.78239163    -0.38610717     1.90537392    -0.00150825    -0.00035745    -0.00065840
H        -0.94537645    -0.20761465     1.94329827    -0.00005918    -0.00009958    -0.00000436
H        -1.05072789     0.01851527    -0.72180610     0.00071567    -0.00026549    -0.00079915
     6
  Step:    42            Position(A)                                  Velocity(au)
C        -0.04232883     0.01445278    -0.09051138    -0.00004138    -0.00005793     0.00059067
N        -0.03627015    -0.02186310     1.40524295     0.00009695     0.00006596    -0.00031326
H         1.01308578     0.04095701    -0.67587445    -0.00031784     0.00047015    -0.00121956
H         0.77431268    -0.38815882     1.90177835    -0.00138531    -0.00038587    -0.00062742
H        -0.94543215    -0.20802372     1.94302039     0.00003920    -0.00004747    -0.00009615
H        -1.04648161     0.01704511    -0.72609281     0.00080982    -0.00026314    -0.00074215
     6
  Step:    43            Position(A)                                  Velocity(au)
C        -0.04254923     0.01412598    -0.08714000    -0.00003780    -0.00005951     0.00062024
N        -0.03577856    -0.02149769     1.40341101     0.00007918     0.00006574    -0.00034495
H         1.01095659     0.04358800    -0.68245071    -0.00044681     0.00047546    -0.00114321
H         0.76698568    -0.39039840     1.89839647    -0.00123888    -0.00042410    -0.00058220
H        -0.94494053    -0.20814259     1.94222898     0.00013638     0.00000457    -0.00018812
H        -1.04172190     0.01558887    -0.73005954     0.00089934    -0.00026035    -0.00068380
     6
  Step:    44            Position(A)                                  Velocity(au)
C        -0.04274930     0.01379068    -0.08361126    -0.00003405    -0.00006094     0.00064679
N        -0.03538924    -0.02113170     1.40140546     0.00006038     0.00006607    -0.00037534
H         1.00811511     0.04624645    -0.68859254    -0.00057301     0.00047972    -0.00106292
H         0.76053030    -0.39287687     1.89530144    -0.00107348    -0.00047055    -0.00052521
H        -0.94391498    -0.20797288     1.94092758     0.00022987     0.00005602    -0.00027853
H        -1.03647662     0.01414875    -0.73370001     0.00098333    -0.00025720    -0.00062460
     6