|===============================================================================
|
|  DFTB+ release 20.1
|
|  Copyright (C) 2006 - 2020  DFTB+ developers group
|
|===============================================================================
|
|  When publishing results obtained with DFTB+, please cite the following
|  reference:
|
|  * DFTB+, a software package for efficient approximate density functional
|    theory based atomistic simulations, J. Chem. Phys. 152, 124101 (2020).
|    [doi: 10.1063/1.5143190]
|
|  You should also cite additional publications crediting the parametrization
|  data you use. Please consult the documentation of the SK-files for the
|  references.
|
|===============================================================================

Reading input file 'dftb_in.hsd'
Parser version: 8

--------------------------------------------------------------------------------
Reading SK-files:
Done.


Processed input in HSD format written to 'dftb_pin.hsd'

Starting initialization...
--------------------------------------------------------------------------------
OpenMP threads:              1
Chosen random seed:          509758505
Mode:                        Static calculation
Self consistent charges:     Yes
SCC-tolerance:                 0.100000E-05
Max. scc iterations:                   1000
Shell resolved Hubbard:      No
Spin polarisation:           No
Nr. of up electrons:             6.000000
Nr. of down electrons:           6.000000
Periodic boundaries:         No
Electronic solver:           Relatively robust
Maximal SCC-cycles:                    1000
Initial charges:             Set automatically (system chrg:   0.100E+01)
Included shells:             C:  s, p
                             N:  s, p
                             H:  s
Spin coupling constants:     C   1(s)-1(s):  -0.455900E-01
                             C   1(s)-2(p):  -0.293000E-01
                             C   2(p)-1(s):  -0.293000E-01
                             C   2(p)-2(p):  -0.275500E-01
                             N   1(s)-1(s):  -0.468700E-01
                             N   1(s)-2(p):  -0.317000E-01
                             N   2(p)-1(s):  -0.317000E-01
                             N   2(p)-2(p):  -0.307200E-01
                             H   1(s)-1(s):  -0.792500E-01
Range separated hybrid:      Yes
  Screening parameter omega:   0.300000E+00
  Range separated algorithm:   MatrixBased
Extra options:
                             Mulliken analysis
                             Force calculation
Force type                   original
                             Eigenvector printing


REKS Calcuation:             Yes
SSR(2,2) Calcuation:         Yes
Energy Functional:           (PPS+OSS)/2
Number of Core Orbitals:                  5
Number of Active Orbitals:                2
Number of Basis:                         12
Number of States:                         2
State-Averaging Weight:          0.500000
                                 0.500000
State of Interest:                        2
Initial Guess:               Diagonalize H0 matrix
Newton-Raphson for FON opt:  Yes
NR max. Iterations:                      50
Level Shifting:              Yes
Shift Value:                     0.300000
W Scale Factor:              C  =    3.000000
                             N  =    3.000000
                             H  =    3.000000
Transition Dipole:           No
Gradient of Microstate:      No
CP-REKS Solver:              Preconditioned Conjugate-Gradient
CG max. Iterations:                     100
CG Tolerance:                  0.100000E-07
Memory for A and Hxc:        Direct Updating Without Saving
Non-Adiabatic Coupling:      Yes

--------------------------------------------------------------------------------

***  Geometry step: 0

  iSCC       reks energy        Diff energy         x_a       SCC error   
    1       -6.2386477821       0.0000000000     0.996911    1.13248678
    2       -6.2576873351      -0.0190395530     0.999555    0.11213668
    3       -6.2649289101      -0.0072415750     0.999931    0.07590639
    4       -6.2675540629      -0.0026251528     0.999985    0.04436078
    5       -6.2682573304      -0.0007032676     0.999994    0.02227606
    6       -6.2684105165      -0.0001531861     0.999996    0.01009298
    7       -6.2684441797      -0.0000336632     0.999997    0.00409136
    8       -6.2684533957      -0.0000092160     0.999997    0.00159196
    9       -6.2684569520      -0.0000035564     0.999997    0.00078706
   10       -6.2684588365      -0.0000018844     0.999997    0.00063262
   11       -6.2684600744      -0.0000012379     0.999997    0.00052007
   12       -6.2684610044      -0.0000009300     0.999997    0.00043792
   13       -6.2684617666      -0.0000007622     0.999997    0.00037774
   14       -6.2684624286      -0.0000006620     0.999997    0.00033335
   15       -6.2684630262      -0.0000005976     0.999997    0.00030027
   16       -6.2684635795      -0.0000005533     0.999997    0.00027529
   17       -6.2684641003      -0.0000005208     0.999997    0.00025613
   18       -6.2684645956      -0.0000004953     0.999997    0.00024115
   19       -6.2684650697      -0.0000004741     0.999997    0.00022922
   20       -6.2684655254      -0.0000004558     0.999997    0.00021951
   21       -6.2684659647      -0.0000004393     0.999997    0.00021145
   22       -6.2684663888      -0.0000004242     0.999997    0.00020462
   23       -6.2684667989      -0.0000004100     0.999997    0.00019872
   24       -6.2684671955      -0.0000003967     0.999997    0.00019352
   25       -6.2684675795      -0.0000003839     0.999997    0.00018887
   26       -6.2684679513      -0.0000003718     0.999997    0.00018465
   27       -6.2684683114      -0.0000003602     0.999997    0.00018077
   28       -6.2684686604      -0.0000003490     0.999997    0.00017716
   29       -6.2684689987      -0.0000003383     0.999997    0.00017377
   30       -6.2684693266      -0.0000003279     0.999997    0.00017057
   31       -6.2684696446      -0.0000003180     0.999997    0.00016751
   32       -6.2684699529      -0.0000003084     0.999997    0.00016459
   33       -6.2684702521      -0.0000002991     0.999997    0.00016178
   34       -6.2684705423      -0.0000002902     0.999997    0.00015908
   35       -6.2684708240      -0.0000002817     0.999997    0.00015645
   36       -6.2684710974      -0.0000002734     0.999997    0.00015391
   37       -6.2684713628      -0.0000002654     0.999997    0.00015144
   38       -6.2684716204      -0.0000002577     0.999997    0.00014904
   39       -6.2684718707      -0.0000002502     0.999997    0.00014670
   40       -6.2684721138      -0.0000002431     0.999997    0.00014442
   41       -6.2684723499      -0.0000002361     0.999997    0.00014219
   42       -6.2684725793      -0.0000002295     0.999997    0.00014002
   43       -6.2684728023      -0.0000002230     0.999997    0.00013789
   44       -6.2684730191      -0.0000002167     0.999997    0.00013582
   45       -6.2684732298      -0.0000002107     0.999997    0.00013379
   46       -6.2684734347      -0.0000002049     0.999997    0.00013180
   47       -6.2684736339      -0.0000001993     0.999997    0.00012986
   48       -6.2684738278      -0.0000001938     0.999997    0.00012795
   49       -6.2684740163      -0.0000001885     0.999997    0.00012609
   50       -6.2684741998      -0.0000001835     0.999997    0.00012427
   51       -6.2684743783      -0.0000001785     0.999997    0.00012248
   52       -6.2684745521      -0.0000001738     0.999997    0.00012073
   53       -6.2684747212      -0.0000001692     0.999997    0.00011902
   54       -6.2684748859      -0.0000001647     0.999997    0.00011734
   55       -6.2684750463      -0.0000001604     0.999997    0.00011570
   56       -6.2684752025      -0.0000001562     0.999997    0.00011409
   57       -6.2684753547      -0.0000001522     0.999997    0.00011251
   58       -6.2684755029      -0.0000001482     0.999997    0.00011096
   59       -6.2684756473      -0.0000001444     0.999997    0.00010944
   60       -6.2684757881      -0.0000001408     0.999997    0.00010795
   61       -6.2684759253      -0.0000001372     0.999997    0.00010649
   62       -6.2684760590      -0.0000001337     0.999997    0.00010506
   63       -6.2684761894      -0.0000001304     0.999997    0.00010366
   64       -6.2684763166      -0.0000001272     0.999997    0.00010228
   65       -6.2684764406      -0.0000001240     0.999997    0.00010094
   66       -6.2684765616      -0.0000001210     0.999997    0.00009961
   67       -6.2684766796      -0.0000001180     0.999997    0.00009831
   68       -6.2684767947      -0.0000001151     0.999997    0.00009704
   69       -6.2684769070      -0.0000001123     0.999997    0.00009579
   70       -6.2684770167      -0.0000001096     0.999997    0.00009456
   71       -6.2684771237      -0.0000001070     0.999997    0.00009336
   72       -6.2684772282      -0.0000001045     0.999997    0.00009217
   73       -6.2684773302      -0.0000001020     0.999997    0.00009101
   74       -6.2684774298      -0.0000000996     0.999997    0.00008987
   75       -6.2684775270      -0.0000000973     0.999997    0.00008875
   76       -6.2684776220      -0.0000000950     0.999997    0.00008766
   77       -6.2684777149      -0.0000000928     0.999997    0.00008658
   78       -6.2684778055      -0.0000000907     0.999997    0.00008552
   79       -6.2684778941      -0.0000000886     0.999997    0.00008448
   80       -6.2684779807      -0.0000000866     0.999997    0.00008346
   81       -6.2684780653      -0.0000000846     0.999997    0.00008245
   82       -6.2684781481      -0.0000000827     0.999997    0.00008147
   83       -6.2684782289      -0.0000000809     0.999997    0.00008050
   84       -6.2684783080      -0.0000000791     0.999997    0.00007954
   85       -6.2684783853      -0.0000000773     0.999997    0.00007861
   86       -6.2684784609      -0.0000000756     0.999997    0.00007769
   87       -6.2684785349      -0.0000000740     0.999997    0.00007678
   88       -6.2684786072      -0.0000000723     0.999997    0.00007590
   89       -6.2684786780      -0.0000000708     0.999997    0.00007502
   90       -6.2684787473      -0.0000000693     0.999997    0.00007416
   91       -6.2684788150      -0.0000000678     0.999997    0.00007332
   92       -6.2684788813      -0.0000000663     0.999997    0.00007249
   93       -6.2684789463      -0.0000000649     0.999997    0.00007167
   94       -6.2684790098      -0.0000000635     0.999997    0.00007087
   95       -6.2684790720      -0.0000000622     0.999997    0.00007008
   96       -6.2684791329      -0.0000000609     0.999997    0.00006931
   97       -6.2684791925      -0.0000000596     0.999997    0.00006854
   98       -6.2684792510      -0.0000000584     0.999997    0.00006779
   99       -6.2684793082      -0.0000000572     0.999997    0.00006705
  100       -6.2684793642      -0.0000000560     0.999997    0.00006633
  101       -6.2684794191      -0.0000000549     0.999997    0.00006561
  102       -6.2684794729      -0.0000000538     0.999997    0.00006491
  103       -6.2684795256      -0.0000000527     0.999997    0.00006421
  104       -6.2684795772      -0.0000000516     0.999997    0.00006353
  105       -6.2684796278      -0.0000000506     0.999997    0.00006286
  106       -6.2684796774      -0.0000000496     0.999997    0.00006220
  107       -6.2684797260      -0.0000000486     0.999997    0.00006155
  108       -6.2684797737      -0.0000000477     0.999997    0.00006091
  109       -6.2684798204      -0.0000000467     0.999997    0.00006028
  110       -6.2684798663      -0.0000000458     0.999997    0.00005966
  111       -6.2684799112      -0.0000000449     0.999997    0.00005905
  112       -6.2684799553      -0.0000000441     0.999997    0.00005845
  113       -6.2684799985      -0.0000000432     0.999997    0.00005786
  114       -6.2684800409      -0.0000000424     0.999997    0.00005727
  115       -6.2684800825      -0.0000000416     0.999997    0.00005670
  116       -6.2684801233      -0.0000000408     0.999997    0.00005613
  117       -6.2684801634      -0.0000000400     0.999997    0.00005558
  118       -6.2684802027      -0.0000000393     0.999997    0.00005503
  119       -6.2684802413      -0.0000000386     0.999997    0.00005449
  120       -6.2684802791      -0.0000000379     0.999997    0.00005396
  121       -6.2684803163      -0.0000000372     0.999997    0.00005343
  122       -6.2684803527      -0.0000000365     0.999997    0.00005291
  123       -6.2684803886      -0.0000000358     0.999997    0.00005240
  124       -6.2684804237      -0.0000000352     0.999997    0.00005190
  125       -6.2684804582      -0.0000000345     0.999997    0.00005141
  126       -6.2684804921      -0.0000000339     0.999997    0.00005092
  127       -6.2684805254      -0.0000000333     0.999997    0.00005044
  128       -6.2684805581      -0.0000000327     0.999997    0.00004996
  129       -6.2684805903      -0.0000000321     0.999997    0.00004950
  130       -6.2684806218      -0.0000000316     0.999997    0.00004904
  131       -6.2684806528      -0.0000000310     0.999997    0.00004858
  132       -6.2684806833      -0.0000000305     0.999997    0.00004814
  133       -6.2684807132      -0.0000000299     0.999997    0.00004769
  134       -6.2684807426      -0.0000000294     0.999997    0.00004726
  135       -6.2684807715      -0.0000000289     0.999997    0.00004683
  136       -6.2684807999      -0.0000000284     0.999997    0.00004641
  137       -6.2684808279      -0.0000000279     0.999997    0.00004599
  138       -6.2684808553      -0.0000000275     0.999997    0.00004558
  139       -6.2684808823      -0.0000000270     0.999997    0.00004517
  140       -6.2684809088      -0.0000000265     0.999997    0.00004477
  141       -6.2684809349      -0.0000000261     0.999997    0.00004438
  142       -6.2684809606      -0.0000000257     0.999997    0.00004399
  143       -6.2684809858      -0.0000000252     0.999997    0.00004360
  144       -6.2684810106      -0.0000000248     0.999997    0.00004322
  145       -6.2684810350      -0.0000000244     0.999997    0.00004285
  146       -6.2684810590      -0.0000000240     0.999997    0.00004248
  147       -6.2684810826      -0.0000000236     0.999997    0.00004212
  148       -6.2684811059      -0.0000000232     0.999997    0.00004176
  149       -6.2684811287      -0.0000000229     0.999997    0.00004140
  150       -6.2684811512      -0.0000000225     0.999997    0.00004105
  151       -6.2684811733      -0.0000000221     0.999997    0.00004071
  152       -6.2684811951      -0.0000000218     0.999997    0.00004037
  153       -6.2684812165      -0.0000000214     0.999997    0.00004003
  154       -6.2684812376      -0.0000000211     0.999997    0.00003970
  155       -6.2684812584      -0.0000000208     0.999997    0.00003937
  156       -6.2684812788      -0.0000000204     0.999997    0.00003905
  157       -6.2684812989      -0.0000000201     0.999997    0.00003873
  158       -6.2684813187      -0.0000000198     0.999997    0.00003841
  159       -6.2684813382      -0.0000000195     0.999997    0.00003810
  160       -6.2684813574      -0.0000000192     0.999997    0.00003779
  161       -6.2684813763      -0.0000000189     0.999997    0.00003749
  162       -6.2684813949      -0.0000000186     0.999997    0.00003719
  163       -6.2684814133      -0.0000000183     0.999997    0.00003689
  164       -6.2684814313      -0.0000000181     0.999997    0.00003660
  165       -6.2684814491      -0.0000000178     0.999997    0.00003631
  166       -6.2684814666      -0.0000000175     0.999997    0.00003602
  167       -6.2684814839      -0.0000000173     0.999997    0.00003574
  168       -6.2684815009      -0.0000000170     0.999997    0.00003546
  169       -6.2684815176      -0.0000000167     0.999997    0.00003519
  170       -6.2684815341      -0.0000000165     0.999997    0.00003492
  171       -6.2684815504      -0.0000000163     0.999997    0.00003465
  172       -6.2684815664      -0.0000000160     0.999997    0.00003438
  173       -6.2684815822      -0.0000000158     0.999997    0.00003412
  174       -6.2684815978      -0.0000000156     0.999997    0.00003386
  175       -6.2684816131      -0.0000000153     0.999997    0.00003361
  176       -6.2684816282      -0.0000000151     0.999997    0.00003336
  177       -6.2684816431      -0.0000000149     0.999997    0.00003311
  178       -6.2684816578      -0.0000000147     0.999997    0.00003286
  179       -6.2684816723      -0.0000000145     0.999997    0.00003262
  180       -6.2684816866      -0.0000000143     0.999997    0.00003237
  181       -6.2684817007      -0.0000000141     0.999997    0.00003214
  182       -6.2684817146      -0.0000000139     0.999997    0.00003190
  183       -6.2684817282      -0.0000000137     0.999997    0.00003167
  184       -6.2684817417      -0.0000000135     0.999997    0.00003144
  185       -6.2684817551      -0.0000000133     0.999997    0.00003121
  186       -6.2684817682      -0.0000000131     0.999997    0.00003099
  187       -6.2684817811      -0.0000000130     0.999997    0.00003077
  188       -6.2684817939      -0.0000000128     0.999997    0.00003055
  189       -6.2684818065      -0.0000000126     0.999997    0.00003033
  190       -6.2684818190      -0.0000000124     0.999997    0.00003011
  191       -6.2684818312      -0.0000000123     0.999997    0.00002990
  192       -6.2684818433      -0.0000000121     0.999997    0.00002969
  193       -6.2684818553      -0.0000000119     0.999997    0.00002949
  194       -6.2684818670      -0.0000000118     0.999997    0.00002928
  195       -6.2684818787      -0.0000000116     0.999997    0.00002908
  196       -6.2684818901      -0.0000000115     0.999997    0.00002888
  197       -6.2684819015      -0.0000000113     0.999997    0.00002868
  198       -6.2684819126      -0.0000000112     0.999997    0.00002848
  199       -6.2684819237      -0.0000000110     0.999997    0.00002829
  200       -6.2684819346      -0.0000000109     0.999997    0.00002810
  201       -6.2684819453      -0.0000000107     0.999997    0.00002791
  202       -6.2684819559      -0.0000000106     0.999997    0.00002772
  203       -6.2684819664      -0.0000000105     0.999997    0.00002754
  204       -6.2684819767      -0.0000000103     0.999997    0.00002735
  205       -6.2684819869      -0.0000000102     0.999997    0.00002717
  206       -6.2684819970      -0.0000000101     0.999997    0.00002699
  207       -6.2684820070      -0.0000000100     0.999997    0.00002681
  208       -6.2684820168      -0.0000000098     0.999997    0.00002664
  209       -6.2684820265      -0.0000000097     0.999997    0.00002646
  210       -6.2684820361      -0.0000000096     0.999997    0.00002629
  211       -6.2684820456      -0.0000000095     0.999997    0.00002612
  212       -6.2684820549      -0.0000000093     0.999997    0.00002595
  213       -6.2684820641      -0.0000000092     0.999997    0.00002579
  214       -6.2684820733      -0.0000000091     0.999997    0.00002562
  215       -6.2684820823      -0.0000000090     0.999997    0.00002546
  216       -6.2684820912      -0.0000000089     0.999997    0.00002530
  217       -6.2684821000      -0.0000000088     0.999997    0.00002514
  218       -6.2684821087      -0.0000000087     0.999997    0.00002498
  219       -6.2684821172      -0.0000000086     0.999997    0.00002482
  220       -6.2684821257      -0.0000000085     0.999997    0.00002468
  221       -6.2684821341      -0.0000000084     0.999997    0.00002455
  222       -6.2684821424      -0.0000000083     0.999997    0.00002442
  223       -6.2684821506      -0.0000000082     0.999997    0.00002429
  224       -6.2684821587      -0.0000000081     0.999997    0.00002416
  225       -6.2684821667      -0.0000000080     0.999997    0.00002403
  226       -6.2684821746      -0.0000000079     0.999997    0.00002390
  227       -6.2684821824      -0.0000000078     0.999997    0.00002378
  228       -6.2684821901      -0.0000000077     0.999997    0.00002365
  229       -6.2684821977      -0.0000000076     0.999997    0.00002353
  230       -6.2684822053      -0.0000000075     0.999997    0.00002341
  231       -6.2684822127      -0.0000000075     0.999997    0.00002329
  232       -6.2684822201      -0.0000000074     0.999997    0.00002317
  233       -6.2684822274      -0.0000000073     0.999997    0.00002305
  234       -6.2684822346      -0.0000000072     0.999997    0.00002293
  235       -6.2684822417      -0.0000000071     0.999997    0.00002281
  236       -6.2684822488      -0.0000000070     0.999997    0.00002270
  237       -6.2684822557      -0.0000000070     0.999997    0.00002258
  238       -6.2684822626      -0.0000000069     0.999997    0.00002247
  239       -6.2684822694      -0.0000000068     0.999997    0.00002235
  240       -6.2684822762      -0.0000000067     0.999997    0.00002224
  241       -6.2684822828      -0.0000000067     0.999997    0.00002213
  242       -6.2684822894      -0.0000000066     0.999997    0.00002202
  243       -6.2684822960      -0.0000000065     0.999997    0.00002191
  244       -6.2684823024      -0.0000000065     0.999997    0.00002180
  245       -6.2684823088      -0.0000000064     0.999997    0.00002170
  246       -6.2684823151      -0.0000000063     0.999997    0.00002159
  247       -6.2684823213      -0.0000000062     0.999997    0.00002149
  248       -6.2684823275      -0.0000000062     0.999997    0.00002138
  249       -6.2684823336      -0.0000000061     0.999997    0.00002128
  250       -6.2684823397      -0.0000000060     0.999997    0.00002118
  251       -6.2684823457      -0.0000000060     0.999997    0.00002107
  252       -6.2684823516      -0.0000000059     0.999997    0.00002097
  253       -6.2684823575      -0.0000000059     0.999997    0.00002087
  254       -6.2684823632      -0.0000000058     0.999997    0.00002077
  255       -6.2684823690      -0.0000000057     0.999997    0.00002068
  256       -6.2684823747      -0.0000000057     0.999997    0.00002058
  257       -6.2684823803      -0.0000000056     0.999997    0.00002048
  258       -6.2684823858      -0.0000000056     0.999997    0.00002039
  259       -6.2684823914      -0.0000000055     0.999997    0.00002029
  260       -6.2684823968      -0.0000000055     0.999997    0.00002020
  261       -6.2684824022      -0.0000000054     0.999997    0.00002010
  262       -6.2684824075      -0.0000000053     0.999997    0.00002001
  263       -6.2684824128      -0.0000000053     0.999997    0.00001992
  264       -6.2684824181      -0.0000000052     0.999997    0.00001983
  265       -6.2684824232      -0.0000000052     0.999997    0.00001974
  266       -6.2684824284      -0.0000000051     0.999997    0.00001965
  267       -6.2684824335      -0.0000000051     0.999997    0.00001956
  268       -6.2684824385      -0.0000000050     0.999997    0.00001947
  269       -6.2684824435      -0.0000000050     0.999997    0.00001938
  270       -6.2684824484      -0.0000000049     0.999997    0.00001930
  271       -6.2684824533      -0.0000000049     0.999997    0.00001921
  272       -6.2684824581      -0.0000000048     0.999997    0.00001912
  273       -6.2684824629      -0.0000000048     0.999997    0.00001904
  274       -6.2684824676      -0.0000000047     0.999997    0.00001896
  275       -6.2684824723      -0.0000000047     0.999997    0.00001887
  276       -6.2684824770      -0.0000000047     0.999997    0.00001879
  277       -6.2684824816      -0.0000000046     0.999997    0.00001871
  278       -6.2684824862      -0.0000000046     0.999997    0.00001863
  279       -6.2684824907      -0.0000000045     0.999997    0.00001855
  280       -6.2684824952      -0.0000000045     0.999997    0.00001847
  281       -6.2684824996      -0.0000000044     0.999997    0.00001839
  282       -6.2684825040      -0.0000000044     0.999997    0.00001831
  283       -6.2684825084      -0.0000000044     0.999997    0.00001823
  284       -6.2684825127      -0.0000000043     0.999997    0.00001815
  285       -6.2684825169      -0.0000000043     0.999997    0.00001808
  286       -6.2684825212      -0.0000000042     0.999997    0.00001800
  287       -6.2684825254      -0.0000000042     0.999997    0.00001792
  288       -6.2684825295      -0.0000000042     0.999997    0.00001785
  289       -6.2684825337      -0.0000000041     0.999997    0.00001778
  290       -6.2684825377      -0.0000000041     0.999997    0.00001770
  291       -6.2684825418      -0.0000000040     0.999997    0.00001763
  292       -6.2684825458      -0.0000000040     0.999997    0.00001756
  293       -6.2684825498      -0.0000000040     0.999997    0.00001748
  294       -6.2684825537      -0.0000000039     0.999997    0.00001741
  295       -6.2684825576      -0.0000000039     0.999997    0.00001734
  296       -6.2684825615      -0.0000000039     0.999997    0.00001727
  297       -6.2684825653      -0.0000000038     0.999997    0.00001720
  298       -6.2684825691      -0.0000000038     0.999997    0.00001713
  299       -6.2684825729      -0.0000000038     0.999997    0.00001706
  300       -6.2684825766      -0.0000000037     0.999997    0.00001700
  301       -6.2684825803      -0.0000000037     0.999997    0.00001693
  302       -6.2684825840      -0.0000000037     0.999997    0.00001686
  303       -6.2684825876      -0.0000000036     0.999997    0.00001679
  304       -6.2684825912      -0.0000000036     0.999997    0.00001673
  305       -6.2684825948      -0.0000000036     0.999997    0.00001666
  306       -6.2684825984      -0.0000000035     0.999997    0.00001660
  307       -6.2684826019      -0.0000000035     0.999997    0.00001653
  308       -6.2684826054      -0.0000000035     0.999997    0.00001647
  309       -6.2684826088      -0.0000000035     0.999997    0.00001641
  310       -6.2684826123      -0.0000000034     0.999997    0.00001634
  311       -6.2684826157      -0.0000000034     0.999997    0.00001628
  312       -6.2684826190      -0.0000000034     0.999997    0.00001622
  313       -6.2684826224      -0.0000000033     0.999997    0.00001616
  314       -6.2684826257      -0.0000000033     0.999997    0.00001609
  315       -6.2684826290      -0.0000000033     0.999997    0.00001603
  316       -6.2684826322      -0.0000000033     0.999997    0.00001597
  317       -6.2684826355      -0.0000000032     0.999997    0.00001591
  318       -6.2684826387      -0.0000000032     0.999997    0.00001585
  319       -6.2684826419      -0.0000000032     0.999997    0.00001580
  320       -6.2684826450      -0.0000000032     0.999997    0.00001574
  321       -6.2684826482      -0.0000000031     0.999997    0.00001568
  322       -6.2684826513      -0.0000000031     0.999997    0.00001562
  323       -6.2684826544      -0.0000000031     0.999997    0.00001556
  324       -6.2684826574      -0.0000000031     0.999997    0.00001551
  325       -6.2684826604      -0.0000000030     0.999997    0.00001545
  326       -6.2684826635      -0.0000000030     0.999997    0.00001540
  327       -6.2684826664      -0.0000000030     0.999997    0.00001534
  328       -6.2684826694      -0.0000000030     0.999997    0.00001528
  329       -6.2684826723      -0.0000000029     0.999997    0.00001523
  330       -6.2684826753      -0.0000000029     0.999997    0.00001518
  331       -6.2684826782      -0.0000000029     0.999997    0.00001512
  332       -6.2684826810      -0.0000000029     0.999997    0.00001507
  333       -6.2684826839      -0.0000000029     0.999997    0.00001502
  334       -6.2684826867      -0.0000000028     0.999997    0.00001496
  335       -6.2684826895      -0.0000000028     0.999997    0.00001491
  336       -6.2684826923      -0.0000000028     0.999997    0.00001486
  337       -6.2684826951      -0.0000000028     0.999997    0.00001481
  338       -6.2684826978      -0.0000000027     0.999997    0.00001476
  339       -6.2684827005      -0.0000000027     0.999997    0.00001471
  340       -6.2684827032      -0.0000000027     0.999997    0.00001465
  341       -6.2684827059      -0.0000000027     0.999997    0.00001460
  342       -6.2684827086      -0.0000000027     0.999997    0.00001456
  343       -6.2684827112      -0.0000000026     0.999997    0.00001451
  344       -6.2684827139      -0.0000000026     0.999997    0.00001446
  345       -6.2684827165      -0.0000000026     0.999997    0.00001441
  346       -6.2684827191      -0.0000000026     0.999997    0.00001436
  347       -6.2684827216      -0.0000000026     0.999997    0.00001431
  348       -6.2684827242      -0.0000000025     0.999997    0.00001426
  349       -6.2684827267      -0.0000000025     0.999997    0.00001422
  350       -6.2684827292      -0.0000000025     0.999997    0.00001417
  351       -6.2684827317      -0.0000000025     0.999997    0.00001412
  352       -6.2684827342      -0.0000000025     0.999997    0.00001408
  353       -6.2684827366      -0.0000000025     0.999997    0.00001403
  354       -6.2684827391      -0.0000000024     0.999997    0.00001399
  355       -6.2684827415      -0.0000000024     0.999997    0.00001394
  356       -6.2684827439      -0.0000000024     0.999997    0.00001390
  357       -6.2684827463      -0.0000000024     0.999997    0.00001385
  358       -6.2684827487      -0.0000000024     0.999997    0.00001381
  359       -6.2684827510      -0.0000000024     0.999997    0.00001376
  360       -6.2684827534      -0.0000000023     0.999997    0.00001372
  361       -6.2684827557      -0.0000000023     0.999997    0.00001368
  362       -6.2684827580      -0.0000000023     0.999997    0.00001363
  363       -6.2684827603      -0.0000000023     0.999997    0.00001359
  364       -6.2684827626      -0.0000000023     0.999997    0.00001355
  365       -6.2684827649      -0.0000000023     0.999997    0.00001351
  366       -6.2684827671      -0.0000000022     0.999997    0.00001347
  367       -6.2684827693      -0.0000000022     0.999997    0.00001342
  368       -6.2684827716      -0.0000000022     0.999997    0.00001338
  369       -6.2684827738      -0.0000000022     0.999997    0.00001334
  370       -6.2684827760      -0.0000000022     0.999997    0.00001330
  371       -6.2684827781      -0.0000000022     0.999997    0.00001326
  372       -6.2684827803      -0.0000000022     0.999997    0.00001322
  373       -6.2684827824      -0.0000000021     0.999997    0.00001318
  374       -6.2684827846      -0.0000000021     0.999997    0.00001314
  375       -6.2684827867      -0.0000000021     0.999997    0.00001310
  376       -6.2684827888      -0.0000000021     0.999997    0.00001306
  377       -6.2684827909      -0.0000000021     0.999997    0.00001303
  378       -6.2684827930      -0.0000000021     0.999997    0.00001299
  379       -6.2684827950      -0.0000000021     0.999997    0.00001295
  380       -6.2684827971      -0.0000000021     0.999997    0.00001291
  381       -6.2684827991      -0.0000000020     0.999997    0.00001287
  382       -6.2684828011      -0.0000000020     0.999997    0.00001284
  383       -6.2684828032      -0.0000000020     0.999997    0.00001280
  384       -6.2684828052      -0.0000000020     0.999997    0.00001276
  385       -6.2684828071      -0.0000000020     0.999997    0.00001273
  386       -6.2684828091      -0.0000000020     0.999997    0.00001269
  387       -6.2684828111      -0.0000000020     0.999997    0.00001265
  388       -6.2684828130      -0.0000000020     0.999997    0.00001262
  389       -6.2684828150      -0.0000000019     0.999997    0.00001258
  390       -6.2684828169      -0.0000000019     0.999997    0.00001255
  391       -6.2684828188      -0.0000000019     0.999997    0.00001251
  392       -6.2684828207      -0.0000000019     0.999997    0.00001248
  393       -6.2684828226      -0.0000000019     0.999997    0.00001244
  394       -6.2684828245      -0.0000000019     0.999997    0.00001241
  395       -6.2684828264      -0.0000000019     0.999997    0.00001238
  396       -6.2684828282      -0.0000000019     0.999997    0.00001234
  397       -6.2684828301      -0.0000000018     0.999997    0.00001231
  398       -6.2684828319      -0.0000000018     0.999997    0.00001227
  399       -6.2684828337      -0.0000000018     0.999997    0.00001224
  400       -6.2684828355      -0.0000000018     0.999997    0.00001221
  401       -6.2684828374      -0.0000000018     0.999997    0.00001218
  402       -6.2684828391      -0.0000000018     0.999997    0.00001214
  403       -6.2684828409      -0.0000000018     0.999997    0.00001211
  404       -6.2684828427      -0.0000000018     0.999997    0.00001208
  405       -6.2684828445      -0.0000000018     0.999997    0.00001205
  406       -6.2684828462      -0.0000000018     0.999997    0.00001202
  407       -6.2684828480      -0.0000000017     0.999997    0.00001199
  408       -6.2684828497      -0.0000000017     0.999997    0.00001195
  409       -6.2684828514      -0.0000000017     0.999997    0.00001192
  410       -6.2684828531      -0.0000000017     0.999997    0.00001189
  411       -6.2684828548      -0.0000000017     0.999997    0.00001186
  412       -6.2684828565      -0.0000000017     0.999997    0.00001183
  413       -6.2684828582      -0.0000000017     0.999997    0.00001180
  414       -6.2684828599      -0.0000000017     0.999997    0.00001177
  415       -6.2684828616      -0.0000000017     0.999997    0.00001174
  416       -6.2684828632      -0.0000000017     0.999997    0.00001171
  417       -6.2684828649      -0.0000000016     0.999997    0.00001168
  418       -6.2684828665      -0.0000000016     0.999997    0.00001166
  419       -6.2684828682      -0.0000000016     0.999997    0.00001163
  420       -6.2684828698      -0.0000000016     0.999997    0.00001160
  421       -6.2684828714      -0.0000000016     0.999997    0.00001157
  422       -6.2684828730      -0.0000000016     0.999997    0.00001154
  423       -6.2684828746      -0.0000000016     0.999997    0.00001151
  424       -6.2684828762      -0.0000000016     0.999997    0.00001149
  425       -6.2684828778      -0.0000000016     0.999997    0.00001146
  426       -6.2684828793      -0.0000000016     0.999997    0.00001143
  427       -6.2684828809      -0.0000000016     0.999997    0.00001140
  428       -6.2684828825      -0.0000000016     0.999997    0.00001138
  429       -6.2684828840      -0.0000000015     0.999997    0.00001135
  430       -6.2684828855      -0.0000000015     0.999997    0.00001132
  431       -6.2684828871      -0.0000000015     0.999997    0.00001130
  432       -6.2684828886      -0.0000000015     0.999997    0.00001127
  433       -6.2684828901      -0.0000000015     0.999997    0.00001124
  434       -6.2684828916      -0.0000000015     0.999997    0.00001122
  435       -6.2684828931      -0.0000000015     0.999997    0.00001119
  436       -6.2684828946      -0.0000000015     0.999997    0.00001117
  437       -6.2684828961      -0.0000000015     0.999997    0.00001114
  438       -6.2684828976      -0.0000000015     0.999997    0.00001112
  439       -6.2684828991      -0.0000000015     0.999997    0.00001109
  440       -6.2684829005      -0.0000000015     0.999997    0.00001107
  441       -6.2684829020      -0.0000000015     0.999997    0.00001104
  442       -6.2684829034      -0.0000000014     0.999997    0.00001102
  443       -6.2684829049      -0.0000000014     0.999997    0.00001099
  444       -6.2684829063      -0.0000000014     0.999997    0.00001097
  445       -6.2684829077      -0.0000000014     0.999997    0.00001094
  446       -6.2684829092      -0.0000000014     0.999997    0.00001092
  447       -6.2684829106      -0.0000000014     0.999997    0.00001090
  448       -6.2684829120      -0.0000000014     0.999997    0.00001087
  449       -6.2684829134      -0.0000000014     0.999997    0.00001085
  450       -6.2684829148      -0.0000000014     0.999997    0.00001083
  451       -6.2684829162      -0.0000000014     0.999997    0.00001080
  452       -6.2684829175      -0.0000000014     0.999997    0.00001078
  453       -6.2684829189      -0.0000000014     0.999997    0.00001076
  454       -6.2684829203      -0.0000000014     0.999997    0.00001074
  455       -6.2684829217      -0.0000000014     0.999997    0.00001071
  456       -6.2684829230      -0.0000000014     0.999997    0.00001069
  457       -6.2684829244      -0.0000000014     0.999997    0.00001067
  458       -6.2684829257      -0.0000000013     0.999997    0.00001065
  459       -6.2684829271      -0.0000000013     0.999997    0.00001062
  460       -6.2684829284      -0.0000000013     0.999997    0.00001060
  461       -6.2684829297      -0.0000000013     0.999997    0.00001058
  462       -6.2684829310      -0.0000000013     0.999997    0.00001056
  463       -6.2684829323      -0.0000000013     0.999997    0.00001054
  464       -6.2684829337      -0.0000000013     0.999997    0.00001052
  465       -6.2684829350      -0.0000000013     0.999997    0.00001050
  466       -6.2684829363      -0.0000000013     0.999997    0.00001048
  467       -6.2684829376      -0.0000000013     0.999997    0.00001046
  468       -6.2684829388      -0.0000000013     0.999997    0.00001044
  469       -6.2684829401      -0.0000000013     0.999997    0.00001042
  470       -6.2684829414      -0.0000000013     0.999997    0.00001040
  471       -6.2684829427      -0.0000000013     0.999997    0.00001038
  472       -6.2684829439      -0.0000000013     0.999997    0.00001036
  473       -6.2684829452      -0.0000000013     0.999997    0.00001034
  474       -6.2684829464      -0.0000000013     0.999997    0.00001032
  475       -6.2684829477      -0.0000000012     0.999997    0.00001030
  476       -6.2684829489      -0.0000000012     0.999997    0.00001028
  477       -6.2684829502      -0.0000000012     0.999997    0.00001026
  478       -6.2684829514      -0.0000000012     0.999997    0.00001024
  479       -6.2684829526      -0.0000000012     0.999997    0.00001022
  480       -6.2684829539      -0.0000000012     0.999997    0.00001020
  481       -6.2684829551      -0.0000000012     0.999997    0.00001018
  482       -6.2684829563      -0.0000000012     0.999997    0.00001016
  483       -6.2684829575      -0.0000000012     0.999997    0.00001015
  484       -6.2684829587      -0.0000000012     0.999997    0.00001013
  485       -6.2684829599      -0.0000000012     0.999997    0.00001011
  486       -6.2684829611      -0.0000000012     0.999997    0.00001009
  487       -6.2684829623      -0.0000000012     0.999997    0.00001007
  488       -6.2684829635      -0.0000000012     0.999997    0.00001006
  489       -6.2684829647      -0.0000000012     0.999997    0.00001004
  490       -6.2684829658      -0.0000000012     0.999997    0.00001002
  491       -6.2684829670      -0.0000000012     0.999997    0.00001000
  492       -6.2684829682      -0.0000000012     0.999997    0.00000999
  493       -6.2684829693      -0.0000000012     0.999997    0.00000997
  494       -6.2684829705      -0.0000000012     0.999997    0.00000995
  495       -6.2684829717      -0.0000000012     0.999997    0.00000994
  496       -6.2684829728      -0.0000000011     0.999997    0.00000992
  497       -6.2684829740      -0.0000000011     0.999997    0.00000990
  498       -6.2684829751      -0.0000000011     0.999997    0.00000989
  499       -6.2684829762      -0.0000000011     0.999997    0.00000987
  500       -6.2684829774      -0.0000000011     0.999997    0.00000985
  501       -6.2684829785      -0.0000000011     0.999997    0.00000984
  502       -6.2684829796      -0.0000000011     0.999997    0.00000982
  503       -6.2684829807      -0.0000000011     0.999997    0.00000981
  504       -6.2684829819      -0.0000000011     0.999997    0.00000979
  505       -6.2684829830      -0.0000000011     0.999997    0.00000977
  506       -6.2684829841      -0.0000000011     0.999997    0.00000976
  507       -6.2684829852      -0.0000000011     0.999997    0.00000974
  508       -6.2684829863      -0.0000000011     0.999997    0.00000973
  509       -6.2684829874      -0.0000000011     0.999997    0.00000971
  510       -6.2684829885      -0.0000000011     0.999997    0.00000970
  511       -6.2684829896      -0.0000000011     0.999997    0.00000968
  512       -6.2684829906      -0.0000000011     0.999997    0.00000967
  513       -6.2684829917      -0.0000000011     0.999997    0.00000965
  514       -6.2684829928      -0.0000000011     0.999997    0.00000964
  515       -6.2684829939      -0.0000000011     0.999997    0.00000962
  516       -6.2684829950      -0.0000000011     0.999997    0.00000961
  517       -6.2684829960      -0.0000000011     0.999997    0.00000960
  518       -6.2684829971      -0.0000000011     0.999997    0.00000958
  519       -6.2684829982      -0.0000000011     0.999997    0.00000957
  520       -6.2684829992      -0.0000000011     0.999997    0.00000955
  521       -6.2684830003      -0.0000000011     0.999997    0.00000954
  522       -6.2684830013      -0.0000000011     0.999997    0.00000953
  523       -6.2684830024      -0.0000000010     0.999997    0.00000951
  524       -6.2684830034      -0.0000000010     0.999997    0.00000950
  525       -6.2684830044      -0.0000000010     0.999997    0.00000949
  526       -6.2684830055      -0.0000000010     0.999997    0.00000947
  527       -6.2684830065      -0.0000000010     0.999997    0.00000946
  528       -6.2684830075      -0.0000000010     0.999997    0.00000945
  529       -6.2684830086      -0.0000000010     0.999997    0.00000943
  530       -6.2684830096      -0.0000000010     0.999997    0.00000942
  531       -6.2684830106      -0.0000000010     0.999997    0.00000941
  532       -6.2684830116      -0.0000000010     0.999997    0.00000940
  533       -6.2684830127      -0.0000000010     0.999997    0.00000938
  534       -6.2684830137      -0.0000000010     0.999997    0.00000937
  535       -6.2684830147      -0.0000000010     0.999997    0.00000936
  536       -6.2684830157      -0.0000000010     0.999997    0.00000935
  537       -6.2684830167      -0.0000000010     0.999997    0.00000933
  538       -6.2684830177      -0.0000000010     0.999997    0.00000932
  539       -6.2684830187      -0.0000000010     0.999997    0.00000931
  540       -6.2684830197      -0.0000000010     0.999997    0.00000930
  541       -6.2684830207      -0.0000000010     0.999997    0.00000929
  542       -6.2684830217      -0.0000000010     0.999997    0.00000928
  543       -6.2684830226      -0.0000000010     0.999997    0.00000926
  544       -6.2684830236      -0.0000000010     0.999997    0.00000925
  545       -6.2684830246      -0.0000000010     0.999997    0.00000924
  546       -6.2684830256      -0.0000000010     0.999997    0.00000923
  547       -6.2684830266      -0.0000000010     0.999997    0.00000922
  548       -6.2684830275      -0.0000000010     0.999997    0.00000921
  549       -6.2684830285      -0.0000000010     0.999997    0.00000920
  550       -6.2684830295      -0.0000000010     0.999997    0.00000919
  551       -6.2684830304      -0.0000000010     0.999997    0.00000918
  552       -6.2684830314      -0.0000000010     0.999997    0.00000917
  553       -6.2684830324      -0.0000000010     0.999997    0.00000915
  554       -6.2684830333      -0.0000000010     0.999997    0.00000914
  555       -6.2684830343      -0.0000000010     0.999997    0.00000913
  556       -6.2684830352      -0.0000000010     0.999997    0.00000912
  557       -6.2684830362      -0.0000000009     0.999997    0.00000911
  558       -6.2684830371      -0.0000000009     0.999997    0.00000910
  559       -6.2684830381      -0.0000000009     0.999997    0.00000909
  560       -6.2684830390      -0.0000000009     0.999997    0.00000908
  561       -6.2684830399      -0.0000000009     0.999997    0.00000907
  562       -6.2684830409      -0.0000000009     0.999997    0.00000906
  563       -6.2684830418      -0.0000000009     0.999997    0.00000905
  564       -6.2684830428      -0.0000000009     0.999997    0.00000905
  565       -6.2684830437      -0.0000000009     0.999997    0.00000904
  566       -6.2684830446      -0.0000000009     0.999997    0.00000903
  567       -6.2684830455      -0.0000000009     0.999997    0.00000902
  568       -6.2684830465      -0.0000000009     0.999997    0.00000901
  569       -6.2684830474      -0.0000000009     0.999997    0.00000900
  570       -6.2684830483      -0.0000000009     0.999997    0.00000899
  571       -6.2684830492      -0.0000000009     0.999997    0.00000898
  572       -6.2684830501      -0.0000000009     0.999997    0.00000897
  573       -6.2684830511      -0.0000000009     0.999997    0.00000896
  574       -6.2684830520      -0.0000000009     0.999997    0.00000896
  575       -6.2684830529      -0.0000000009     0.999997    0.00000895
  576       -6.2684830538      -0.0000000009     0.999997    0.00000894
  577       -6.2684830547      -0.0000000009     0.999997    0.00000893
  578       -6.2684830556      -0.0000000009     0.999997    0.00000892
  579       -6.2684830565      -0.0000000009     0.999997    0.00000891
  580       -6.2684830574      -0.0000000009     0.999997    0.00000891
  581       -6.2684830583      -0.0000000009     0.999997    0.00000890
  582       -6.2684830592      -0.0000000009     0.999997    0.00000889
  583       -6.2684830601      -0.0000000009     0.999997    0.00000888
  584       -6.2684830610      -0.0000000009     0.999997    0.00000887
  585       -6.2684830619      -0.0000000009     0.999997    0.00000887
  586       -6.2684830628      -0.0000000009     0.999997    0.00000886
  587       -6.2684830636      -0.0000000009     0.999997    0.00000885
  588       -6.2684830645      -0.0000000009     0.999997    0.00000884
  589       -6.2684830654      -0.0000000009     0.999997    0.00000884
  590       -6.2684830663      -0.0000000009     0.999997    0.00000883
  591       -6.2684830672      -0.0000000009     0.999997    0.00000882
  592       -6.2684830681      -0.0000000009     0.999997    0.00000881
  593       -6.2684830689      -0.0000000009     0.999997    0.00000881
  594       -6.2684830698      -0.0000000009     0.999997    0.00000880
  595       -6.2684830707      -0.0000000009     0.999997    0.00000879
  596       -6.2684830715      -0.0000000009     0.999997    0.00000879
  597       -6.2684830724      -0.0000000009     0.999997    0.00000878
  598       -6.2684830733      -0.0000000009     0.999997    0.00000877
  599       -6.2684830742      -0.0000000009     0.999997    0.00000877
  600       -6.2684830750      -0.0000000009     0.999997    0.00000876
  601       -6.2684830759      -0.0000000009     0.999997    0.00000875
  602       -6.2684830767      -0.0000000009     0.999997    0.00000875
  603       -6.2684830776      -0.0000000009     0.999997    0.00000874
  604       -6.2684830785      -0.0000000009     0.999997    0.00000874
  605       -6.2684830793      -0.0000000009     0.999997    0.00000873
  606       -6.2684830802      -0.0000000009     0.999997    0.00000872
  607       -6.2684830810      -0.0000000009     0.999997    0.00000872
  608       -6.2684830819      -0.0000000009     0.999997    0.00000871
  609       -6.2684830827      -0.0000000009     0.999997    0.00000871
  610       -6.2684830836      -0.0000000009     0.999997    0.00000870
  611       -6.2684830844      -0.0000000008     0.999997    0.00000870
  612       -6.2684830853      -0.0000000008     0.999997    0.00000869
  613       -6.2684830861      -0.0000000008     0.999997    0.00000869
  614       -6.2684830870      -0.0000000008     0.999997    0.00000868
  615       -6.2684830878      -0.0000000008     0.999997    0.00000867
  616       -6.2684830887      -0.0000000008     0.999997    0.00000867
  617       -6.2684830895      -0.0000000008     0.999997    0.00000866
  618       -6.2684830904      -0.0000000008     0.999997    0.00000866
  619       -6.2684830912      -0.0000000008     0.999997    0.00000865
  620       -6.2684830920      -0.0000000008     0.999997    0.00000865
  621       -6.2684830929      -0.0000000008     0.999997    0.00000865
  622       -6.2684830937      -0.0000000008     0.999997    0.00000864
  623       -6.2684830945      -0.0000000008     0.999997    0.00000864
  624       -6.2684830954      -0.0000000008     0.999997    0.00000863
  625       -6.2684830962      -0.0000000008     0.999997    0.00000863
  626       -6.2684830970      -0.0000000008     0.999997    0.00000862
  627       -6.2684830979      -0.0000000008     0.999997    0.00000862
  628       -6.2684830987      -0.0000000008     0.999997    0.00000861
  629       -6.2684830995      -0.0000000008     0.999997    0.00000861
  630       -6.2684831003      -0.0000000008     0.999997    0.00000861
  631       -6.2684831012      -0.0000000008     0.999997    0.00000860
  632       -6.2684831020      -0.0000000008     0.999997    0.00000860
  633       -6.2684831028      -0.0000000008     0.999997    0.00000859
  634       -6.2684831036      -0.0000000008     0.999997    0.00000859
  635       -6.2684831045      -0.0000000008     0.999997    0.00000859
  636       -6.2684831053      -0.0000000008     0.999997    0.00000858
  637       -6.2684831061      -0.0000000008     0.999997    0.00000858
  638       -6.2684831069      -0.0000000008     0.999997    0.00000858
  639       -6.2684831077      -0.0000000008     0.999997    0.00000857
  640       -6.2684831086      -0.0000000008     0.999997    0.00000857
  641       -6.2684831094      -0.0000000008     0.999997    0.00000857
  642       -6.2684831102      -0.0000000008     0.999997    0.00000856
  643       -6.2684831110      -0.0000000008     0.999997    0.00000856
  644       -6.2684831118      -0.0000000008     0.999997    0.00000856
  645       -6.2684831126      -0.0000000008     0.999997    0.00000855
  646       -6.2684831135      -0.0000000008     0.999997    0.00000855
  647       -6.2684831143      -0.0000000008     0.999997    0.00000855
  648       -6.2684831151      -0.0000000008     0.999997    0.00000855
  649       -6.2684831159      -0.0000000008     0.999997    0.00000854
  650       -6.2684831167      -0.0000000008     0.999997    0.00000854
  651       -6.2684831175      -0.0000000008     0.999997    0.00000854
  652       -6.2684831183      -0.0000000008     0.999997    0.00000854
  653       -6.2684831191      -0.0000000008     0.999997    0.00000853
  654       -6.2684831199      -0.0000000008     0.999997    0.00000853
  655       -6.2684831207      -0.0000000008     0.999997    0.00000853
  656       -6.2684831215      -0.0000000008     0.999997    0.00000853
  657       -6.2684831223      -0.0000000008     0.999997    0.00000853
  658       -6.2684831231      -0.0000000008     0.999997    0.00000852
  659       -6.2684831240      -0.0000000008     0.999997    0.00000852
  660       -6.2684831248      -0.0000000008     0.999997    0.00000852
  661       -6.2684831256      -0.0000000008     0.999997    0.00000852
  662       -6.2684831264      -0.0000000008     0.999997    0.00000852
  663       -6.2684831272      -0.0000000008     0.999997    0.00000851
  664       -6.2684831280      -0.0000000008     0.999997    0.00000851
  665       -6.2684831288      -0.0000000008     0.999997    0.00000851
  666       -6.2684831296      -0.0000000008     0.999997    0.00000851
  667       -6.2684831304      -0.0000000008     0.999997    0.00000851
  668       -6.2684831312      -0.0000000008     0.999997    0.00000851
  669       -6.2684831320      -0.0000000008     0.999997    0.00000851
  670       -6.2684831328      -0.0000000008     0.999997    0.00000851
  671       -6.2684831336      -0.0000000008     0.999997    0.00000850
  672       -6.2684831343      -0.0000000008     0.999997    0.00000850
  673       -6.2684831351      -0.0000000008     0.999997    0.00000850
  674       -6.2684831359      -0.0000000008     0.999997    0.00000850
  675       -6.2684831367      -0.0000000008     0.999997    0.00000850
  676       -6.2684831375      -0.0000000008     0.999996    0.00000850
  677       -6.2684831383      -0.0000000008     0.999996    0.00000850
  678       -6.2684831391      -0.0000000008     0.999996    0.00000850
  679       -6.2684831399      -0.0000000008     0.999996    0.00000850
  680       -6.2684831407      -0.0000000008     0.999996    0.00000850
  681       -6.2684831415      -0.0000000008     0.999996    0.00000850
  682       -6.2684831423      -0.0000000008     0.999996    0.00000850
  683       -6.2684831431      -0.0000000008     0.999996    0.00000850
  684       -6.2684831439      -0.0000000008     0.999996    0.00000850
  685       -6.2684831447      -0.0000000008     0.999996    0.00000850
  686       -6.2684831455      -0.0000000008     0.999996    0.00000850
  687       -6.2684831463      -0.0000000008     0.999996    0.00000850
  688       -6.2684831471      -0.0000000008     0.999996    0.00000850
  689       -6.2684831479      -0.0000000008     0.999996    0.00000850
  690       -6.2684831486      -0.0000000008     0.999996    0.00000850
  691       -6.2684831494      -0.0000000008     0.999996    0.00000850
  692       -6.2684831502      -0.0000000008     0.999996    0.00000850
  693       -6.2684831510      -0.0000000008     0.999996    0.00000850
  694       -6.2684831518      -0.0000000008     0.999996    0.00000850
  695       -6.2684831526      -0.0000000008     0.999996    0.00000850
  696       -6.2684831534      -0.0000000008     0.999996    0.00000850
  697       -6.2684831542      -0.0000000008     0.999996    0.00000850
  698       -6.2684831550      -0.0000000008     0.999996    0.00000851
  699       -6.2684831558      -0.0000000008     0.999996    0.00000851
  700       -6.2684831566      -0.0000000008     0.999996    0.00000851
  701       -6.2684831573      -0.0000000008     0.999996    0.00000851
  702       -6.2684831581      -0.0000000008     0.999996    0.00000851
  703       -6.2684831589      -0.0000000008     0.999996    0.00000851
  704       -6.2684831597      -0.0000000008     0.999996    0.00000851
  705       -6.2684831605      -0.0000000008     0.999996    0.00000851
  706       -6.2684831613      -0.0000000008     0.999996    0.00000852
  707       -6.2684831621      -0.0000000008     0.999996    0.00000852
  708       -6.2684831629      -0.0000000008     0.999996    0.00000852
  709       -6.2684831637      -0.0000000008     0.999996    0.00000852
  710       -6.2684831645      -0.0000000008     0.999996    0.00000852
  711       -6.2684831653      -0.0000000008     0.999996    0.00000853
  712       -6.2684831661      -0.0000000008     0.999996    0.00000853
  713       -6.2684831668      -0.0000000008     0.999996    0.00000853
  714       -6.2684831676      -0.0000000008     0.999996    0.00000853
  715       -6.2684831684      -0.0000000008     0.999996    0.00000853
  716       -6.2684831692      -0.0000000008     0.999996    0.00000854
  717       -6.2684831700      -0.0000000008     0.999996    0.00000854
  718       -6.2684831708      -0.0000000008     0.999996    0.00000854
  719       -6.2684831716      -0.0000000008     0.999996    0.00000854
  720       -6.2684831724      -0.0000000008     0.999996    0.00000855
  721       -6.2684831732      -0.0000000008     0.999996    0.00000855
  722       -6.2684831740      -0.0000000008     0.999996    0.00000855
  723       -6.2684831748      -0.0000000008     0.999996    0.00000855
  724       -6.2684831756      -0.0000000008     0.999996    0.00000856
  725       -6.2684831764      -0.0000000008     0.999996    0.00000856
  726       -6.2684831772      -0.0000000008     0.999996    0.00000856
  727       -6.2684831780      -0.0000000008     0.999996    0.00000857
  728       -6.2684831788      -0.0000000008     0.999996    0.00000857
  729       -6.2684831796      -0.0000000008     0.999996    0.00000857
  730       -6.2684831803      -0.0000000008     0.999996    0.00000858
  731       -6.2684831811      -0.0000000008     0.999996    0.00000858
  732       -6.2684831819      -0.0000000008     0.999996    0.00000858
  733       -6.2684831827      -0.0000000008     0.999996    0.00000859
  734       -6.2684831835      -0.0000000008     0.999996    0.00000859
  735       -6.2684831843      -0.0000000008     0.999996    0.00000859
  736       -6.2684831851      -0.0000000008     0.999996    0.00000860
  737       -6.2684831859      -0.0000000008     0.999996    0.00000860
  738       -6.2684831867      -0.0000000008     0.999996    0.00000861
  739       -6.2684831875      -0.0000000008     0.999996    0.00000861
  740       -6.2684831883      -0.0000000008     0.999996    0.00000861
  741       -6.2684831891      -0.0000000008     0.999996    0.00000862
  742       -6.2684831899      -0.0000000008     0.999996    0.00000862
  743       -6.2684831908      -0.0000000008     0.999996    0.00000863
  744       -6.2684831916      -0.0000000008     0.999996    0.00000863
  745       -6.2684831924      -0.0000000008     0.999996    0.00000864
  746       -6.2684831932      -0.0000000008     0.999996    0.00000864
  747       -6.2684831940      -0.0000000008     0.999996    0.00000865
  748       -6.2684831948      -0.0000000008     0.999996    0.00000865
  749       -6.2684831956      -0.0000000008     0.999996    0.00000866
  750       -6.2684831964      -0.0000000008     0.999996    0.00000866
  751       -6.2684831972      -0.0000000008     0.999996    0.00000867
  752       -6.2684831980      -0.0000000008     0.999996    0.00000867
  753       -6.2684831988      -0.0000000008     0.999996    0.00000868
  754       -6.2684831996      -0.0000000008     0.999996    0.00000868
  755       -6.2684832004      -0.0000000008     0.999996    0.00000869
  756       -6.2684832013      -0.0000000008     0.999996    0.00000869
  757       -6.2684832021      -0.0000000008     0.999996    0.00000870
  758       -6.2684832029      -0.0000000008     0.999996    0.00000870
  759       -6.2684832037      -0.0000000008     0.999996    0.00000871
  760       -6.2684832045      -0.0000000008     0.999996    0.00000871
  761       -6.2684832053      -0.0000000008     0.999996    0.00000872
  762       -6.2684832061      -0.0000000008     0.999996    0.00000873
  763       -6.2684832070      -0.0000000008     0.999996    0.00000873
  764       -6.2684832078      -0.0000000008     0.999996    0.00000874
  765       -6.2684832086      -0.0000000008     0.999996    0.00000874
  766       -6.2684832094      -0.0000000008     0.999996    0.00000875
  767       -6.2684832102      -0.0000000008     0.999996    0.00000876
  768       -6.2684832111      -0.0000000008     0.999996    0.00000876
  769       -6.2684832119      -0.0000000008     0.999996    0.00000877
  770       -6.2684832127      -0.0000000008     0.999996    0.00000878
  771       -6.2684832135      -0.0000000008     0.999996    0.00000878
  772       -6.2684832144      -0.0000000008     0.999996    0.00000879
  773       -6.2684832152      -0.0000000008     0.999996    0.00000880
  774       -6.2684832160      -0.0000000008     0.999996    0.00000880
  775       -6.2684832168      -0.0000000008     0.999996    0.00000881
  776       -6.2684832177      -0.0000000008     0.999996    0.00000882
  777       -6.2684832185      -0.0000000008     0.999996    0.00000883
  778       -6.2684832193      -0.0000000008     0.999996    0.00000883
  779       -6.2684832202      -0.0000000008     0.999996    0.00000884
  780       -6.2684832210      -0.0000000008     0.999996    0.00000885
  781       -6.2684832219      -0.0000000008     0.999996    0.00000886
  782       -6.2684832227      -0.0000000008     0.999996    0.00000886
  783       -6.2684832235      -0.0000000008     0.999996    0.00000887
  784       -6.2684832244      -0.0000000008     0.999996    0.00000888
  785       -6.2684832252      -0.0000000008     0.999996    0.00000889
  786       -6.2684832261      -0.0000000008     0.999996    0.00000889
  787       -6.2684832269      -0.0000000008     0.999996    0.00000890
  788       -6.2684832277      -0.0000000008     0.999996    0.00000891
  789       -6.2684832286      -0.0000000008     0.999996    0.00000892
  790       -6.2684832294      -0.0000000008     0.999996    0.00000893
  791       -6.2684832303      -0.0000000008     0.999996    0.00000894
  792       -6.2684832311      -0.0000000009     0.999996    0.00000894
  793       -6.2684832320      -0.0000000009     0.999996    0.00000895
  794       -6.2684832328      -0.0000000009     0.999996    0.00000896
  795       -6.2684832337      -0.0000000009     0.999996    0.00000897
  796       -6.2684832346      -0.0000000009     0.999996    0.00000898
  797       -6.2684832354      -0.0000000009     0.999996    0.00000899
  798       -6.2684832363      -0.0000000009     0.999996    0.00000900
  799       -6.2684832371      -0.0000000009     0.999996    0.00000901
  800       -6.2684832380      -0.0000000009     0.999996    0.00000902
  801       -6.2684832389      -0.0000000009     0.999996    0.00000902
  802       -6.2684832397      -0.0000000009     0.999996    0.00000903
  803       -6.2684832406      -0.0000000009     0.999996    0.00000904
  804       -6.2684832415      -0.0000000009     0.999996    0.00000905
  805       -6.2684832423      -0.0000000009     0.999996    0.00000906
  806       -6.2684832432      -0.0000000009     0.999996    0.00000907
  807       -6.2684832441      -0.0000000009     0.999996    0.00000908
  808       -6.2684832449      -0.0000000009     0.999996    0.00000909
  809       -6.2684832458      -0.0000000009     0.999996    0.00000910
  810       -6.2684832467      -0.0000000009     0.999996    0.00000911
  811       -6.2684832476      -0.0000000009     0.999996    0.00000912
  812       -6.2684832485      -0.0000000009     0.999996    0.00000913
  813       -6.2684832493      -0.0000000009     0.999996    0.00000914
  814       -6.2684832502      -0.0000000009     0.999996    0.00000916
  815       -6.2684832511      -0.0000000009     0.999996    0.00000917
  816       -6.2684832520      -0.0000000009     0.999996    0.00000918
  817       -6.2684832529      -0.0000000009     0.999996    0.00000919
  818       -6.2684832538      -0.0000000009     0.999996    0.00000920
  819       -6.2684832547      -0.0000000009     0.999996    0.00000921
  820       -6.2684832556      -0.0000000009     0.999996    0.00000922
  821       -6.2684832565      -0.0000000009     0.999996    0.00000923
  822       -6.2684832574      -0.0000000009     0.999996    0.00000924
  823       -6.2684832583      -0.0000000009     0.999996    0.00000926
  824       -6.2684832592      -0.0000000009     0.999996    0.00000927
  825       -6.2684832601      -0.0000000009     0.999996    0.00000928
  826       -6.2684832610      -0.0000000009     0.999996    0.00000929
  827       -6.2684832619      -0.0000000009     0.999996    0.00000930
  828       -6.2684832628      -0.0000000009     0.999996    0.00000931
  829       -6.2684832637      -0.0000000009     0.999996    0.00000933
  830       -6.2684832646      -0.0000000009     0.999996    0.00000934
  831       -6.2684832656      -0.0000000009     0.999996    0.00000935
  832       -6.2684832665      -0.0000000009     0.999996    0.00000936
  833       -6.2684832674      -0.0000000009     0.999996    0.00000938
  834       -6.2684832683      -0.0000000009     0.999996    0.00000939
  835       -6.2684832693      -0.0000000009     0.999996    0.00000940
  836       -6.2684832702      -0.0000000009     0.999996    0.00000941
  837       -6.2684832711      -0.0000000009     0.999996    0.00000943
  838       -6.2684832721      -0.0000000009     0.999996    0.00000944
  839       -6.2684832730      -0.0000000009     0.999996    0.00000945
  840       -6.2684832739      -0.0000000009     0.999996    0.00000947
  841       -6.2684832749      -0.0000000009     0.999996    0.00000948
  842       -6.2684832758      -0.0000000009     0.999996    0.00000949
  843       -6.2684832768      -0.0000000009     0.999996    0.00000951
  844       -6.2684832777      -0.0000000009     0.999996    0.00000952
  845       -6.2684832787      -0.0000000010     0.999996    0.00000954
  846       -6.2684832796      -0.0000000010     0.999996    0.00000955
  847       -6.2684832806      -0.0000000010     0.999996    0.00000956
  848       -6.2684832815      -0.0000000010     0.999996    0.00000958
  849       -6.2684832825      -0.0000000010     0.999996    0.00000959
  850       -6.2684832835      -0.0000000010     0.999996    0.00000961
  851       -6.2684832844      -0.0000000010     0.999996    0.00000962
  852       -6.2684832854      -0.0000000010     0.999996    0.00000964
  853       -6.2684832864      -0.0000000010     0.999996    0.00000965
  854       -6.2684832873      -0.0000000010     0.999996    0.00000967
  855       -6.2684832883      -0.0000000010     0.999996    0.00000968
  856       -6.2684832893      -0.0000000010     0.999996    0.00000970
  857       -6.2684832903      -0.0000000010     0.999996    0.00000971
  858       -6.2684832913      -0.0000000010     0.999996    0.00000973
  859       -6.2684832923      -0.0000000010     0.999996    0.00000974
  860       -6.2684832932      -0.0000000010     0.999996    0.00000976
  861       -6.2684832942      -0.0000000010     0.999996    0.00000978
  862       -6.2684832952      -0.0000000010     0.999996    0.00000979
  863       -6.2684832962      -0.0000000010     0.999996    0.00000981
  864       -6.2684832972      -0.0000000010     0.999996    0.00000982
  865       -6.2684832982      -0.0000000010     0.999996    0.00000984
  866       -6.2684832993      -0.0000000010     0.999996    0.00000986
  867       -6.2684833003      -0.0000000010     0.999996    0.00000987
  868       -6.2684833013      -0.0000000010     0.999996    0.00000989
  869       -6.2684833023      -0.0000000010     0.999996    0.00000991
  870       -6.2684833033      -0.0000000010     0.999996    0.00000992
  871       -6.2684833043      -0.0000000010     0.999996    0.00000994
  872       -6.2684833054      -0.0000000010     0.999996    0.00000996
  873       -6.2684833064      -0.0000000010     0.999996    0.00000998
  874       -6.2684833074      -0.0000000010     0.999996    0.00000999
  875       -6.2684833085      -0.0000000010     0.999996    0.00001001
  876       -6.2684833095      -0.0000000010     0.999996    0.00001003
  877       -6.2684833106      -0.0000000010     0.999996    0.00001005
  878       -6.2684833116      -0.0000000010     0.999996    0.00001006
  879       -6.2684833127      -0.0000000011     0.999996    0.00001008
  880       -6.2684833137      -0.0000000011     0.999996    0.00001010
  881       -6.2684833148      -0.0000000011     0.999996    0.00001012
  882       -6.2684833158      -0.0000000011     0.999996    0.00001014
  883       -6.2684833169      -0.0000000011     0.999996    0.00001016
  884       -6.2684833180      -0.0000000011     0.999996    0.00001018
  885       -6.2684833191      -0.0000000011     0.999996    0.00001020
  886       -6.2684833201      -0.0000000011     0.999996    0.00001022
  887       -6.2684833212      -0.0000000011     0.999996    0.00001023
  888       -6.2684833223      -0.0000000011     0.999996    0.00001025
  889       -6.2684833234      -0.0000000011     0.999996    0.00001027
  890       -6.2684833245      -0.0000000011     0.999996    0.00001029
  891       -6.2684833256      -0.0000000011     0.999996    0.00001031
  892       -6.2684833267      -0.0000000011     0.999996    0.00001033
  893       -6.2684833278      -0.0000000011     0.999996    0.00001035
  894       -6.2684833289      -0.0000000011     0.999996    0.00001037
  895       -6.2684833300      -0.0000000011     0.999996    0.00001040
  896       -6.2684833311      -0.0000000011     0.999996    0.00001042
  897       -6.2684833322      -0.0000000011     0.999996    0.00001044
  898       -6.2684833334      -0.0000000011     0.999996    0.00001046
  899       -6.2684833345      -0.0000000011     0.999996    0.00001048
  900       -6.2684833356      -0.0000000011     0.999996    0.00001050
  901       -6.2684833367      -0.0000000011     0.999996    0.00001052
  902       -6.2684833379      -0.0000000011     0.999996    0.00001054
  903       -6.2684833390      -0.0000000011     0.999996    0.00001057
  904       -6.2684833402      -0.0000000011     0.999996    0.00001059
  905       -6.2684833413      -0.0000000012     0.999996    0.00001061
  906       -6.2684833425      -0.0000000012     0.999996    0.00001063
  907       -6.2684833437      -0.0000000012     0.999996    0.00001065
  908       -6.2684833448      -0.0000000012     0.999996    0.00001068
  909       -6.2684833460      -0.0000000012     0.999996    0.00001070
  910       -6.2684833472      -0.0000000012     0.999996    0.00001072
  911       -6.2684833484      -0.0000000012     0.999996    0.00001075
  912       -6.2684833495      -0.0000000012     0.999996    0.00001077
  913       -6.2684833507      -0.0000000012     0.999996    0.00001079
  914       -6.2684833519      -0.0000000012     0.999996    0.00001082
  915       -6.2684833531      -0.0000000012     0.999996    0.00001084
  916       -6.2684833543      -0.0000000012     0.999996    0.00001087
  917       -6.2684833556      -0.0000000012     0.999996    0.00001089
  918       -6.2684833568      -0.0000000012     0.999996    0.00001091
  919       -6.2684833580      -0.0000000012     0.999996    0.00001094
  920       -6.2684833592      -0.0000000012     0.999996    0.00001096
  921       -6.2684833604      -0.0000000012     0.999996    0.00001099
  922       -6.2684833617      -0.0000000012     0.999996    0.00001101
  923       -6.2684833629      -0.0000000012     0.999996    0.00001104
  924       -6.2684833642      -0.0000000012     0.999996    0.00001106
  925       -6.2684833654      -0.0000000013     0.999996    0.00001109
  926       -6.2684833667      -0.0000000013     0.999996    0.00001112
  927       -6.2684833679      -0.0000000013     0.999996    0.00001114
  928       -6.2684833692      -0.0000000013     0.999996    0.00001117
  929       -6.2684833705      -0.0000000013     0.999996    0.00001120
  930       -6.2684833718      -0.0000000013     0.999996    0.00001122
  931       -6.2684833731      -0.0000000013     0.999996    0.00001125
  932       -6.2684833743      -0.0000000013     0.999996    0.00001128
  933       -6.2684833756      -0.0000000013     0.999996    0.00001130
  934       -6.2684833769      -0.0000000013     0.999996    0.00001133
  935       -6.2684833783      -0.0000000013     0.999996    0.00001136
  936       -6.2684833796      -0.0000000013     0.999996    0.00001139
  937       -6.2684833809      -0.0000000013     0.999996    0.00001142
  938       -6.2684833822      -0.0000000013     0.999996    0.00001144
  939       -6.2684833835      -0.0000000013     0.999996    0.00001147
  940       -6.2684833849      -0.0000000013     0.999996    0.00001150
  941       -6.2684833862      -0.0000000013     0.999996    0.00001153
  942       -6.2684833876      -0.0000000014     0.999996    0.00001156
  943       -6.2684833889      -0.0000000014     0.999996    0.00001159
  944       -6.2684833903      -0.0000000014     0.999996    0.00001162
  945       -6.2684833917      -0.0000000014     0.999996    0.00001165
  946       -6.2684833931      -0.0000000014     0.999996    0.00001168
  947       -6.2684833944      -0.0000000014     0.999996    0.00001171
  948       -6.2684833958      -0.0000000014     0.999996    0.00001174
  949       -6.2684833972      -0.0000000014     0.999996    0.00001177
  950       -6.2684833986      -0.0000000014     0.999996    0.00001180
  951       -6.2684834000      -0.0000000014     0.999996    0.00001183
  952       -6.2684834015      -0.0000000014     0.999996    0.00001186
  953       -6.2684834029      -0.0000000014     0.999996    0.00001190
  954       -6.2684834043      -0.0000000014     0.999996    0.00001193
  955       -6.2684834058      -0.0000000014     0.999996    0.00001196
  956       -6.2684834072      -0.0000000014     0.999996    0.00001199
  957       -6.2684834087      -0.0000000015     0.999996    0.00001202
  958       -6.2684834101      -0.0000000015     0.999996    0.00001206
  959       -6.2684834116      -0.0000000015     0.999996    0.00001209
  960       -6.2684834131      -0.0000000015     0.999996    0.00001212
  961       -6.2684834146      -0.0000000015     0.999996    0.00001216
  962       -6.2684834161      -0.0000000015     0.999996    0.00001219
  963       -6.2684834176      -0.0000000015     0.999996    0.00001223
  964       -6.2684834191      -0.0000000015     0.999996    0.00001226
  965       -6.2684834206      -0.0000000015     0.999996    0.00001229
  966       -6.2684834221      -0.0000000015     0.999996    0.00001233
  967       -6.2684834236      -0.0000000015     0.999996    0.00001236
  968       -6.2684834252      -0.0000000015     0.999996    0.00001240
  969       -6.2684834267      -0.0000000015     0.999996    0.00001244
  970       -6.2684834283      -0.0000000016     0.999996    0.00001247
  971       -6.2684834298      -0.0000000016     0.999996    0.00001251
  972       -6.2684834314      -0.0000000016     0.999996    0.00001254
  973       -6.2684834330      -0.0000000016     0.999996    0.00001258
  974       -6.2684834346      -0.0000000016     0.999996    0.00001262
  975       -6.2684834362      -0.0000000016     0.999996    0.00001266
  976       -6.2684834378      -0.0000000016     0.999996    0.00001269
  977       -6.2684834394      -0.0000000016     0.999996    0.00001273
  978       -6.2684834410      -0.0000000016     0.999996    0.00001277
  979       -6.2684834427      -0.0000000016     0.999996    0.00001281
  980       -6.2684834443      -0.0000000016     0.999996    0.00001285
  981       -6.2684834460      -0.0000000017     0.999996    0.00001289
  982       -6.2684834476      -0.0000000017     0.999996    0.00001293
  983       -6.2684834493      -0.0000000017     0.999996    0.00001297
  984       -6.2684834510      -0.0000000017     0.999996    0.00001301
  985       -6.2684834527      -0.0000000017     0.999996    0.00001305
  986       -6.2684834544      -0.0000000017     0.999996    0.00001309
  987       -6.2684834561      -0.0000000017     0.999996    0.00001313
  988       -6.2684834578      -0.0000000017     0.999996    0.00001317
  989       -6.2684834596      -0.0000000017     0.999996    0.00001321
  990       -6.2684834613      -0.0000000017     0.999996    0.00001325
  991       -6.2684834631      -0.0000000018     0.999996    0.00001329
  992       -6.2684834648      -0.0000000018     0.999996    0.00001334
  993       -6.2684834666      -0.0000000018     0.999996    0.00001338
  994       -6.2684834684      -0.0000000018     0.999996    0.00001342
  995       -6.2684834702      -0.0000000018     0.999996    0.00001347
  996       -6.2684834720      -0.0000000018     0.999996    0.00001351
  997       -6.2684834738      -0.0000000018     0.999996    0.00001355
  998       -6.2684834757      -0.0000000018     0.999996    0.00001360
  999       -6.2684834775      -0.0000000018     0.999996    0.00001364
 1000       -6.2684834793      -0.0000000019     0.999996    0.00001369

Total Energy:                       -6.2684834793 H         -170.5741 eV
Extrapolated to 0:                  -6.2425676927 H         -169.8689 eV

----------------------------------------------------------------------------------
 Solving CP-REKS equation for  1 state vector...
----------------------------------------------------------------------------------
  CG solver: Constructing Y initial guess
  CG solver: Iteration    1    eps =    0.052779293215
  CG solver: Iteration    2    eps =    0.032497823670
  CG solver: Iteration    3    eps =    0.282945788124
  CG solver: Iteration    4    eps =  311.528780776354
  CG solver: Iteration    5    eps =    0.081034687526
  CG solver: Iteration    6    eps =    0.001414330405
  CG solver: Iteration    7    eps =    0.000085101718
  CG solver: Iteration    8    eps =    0.000019045258
  CG solver: Iteration    9    eps =    0.000000661321
  CG solver: Iteration   10    eps =    0.000000008365
  Convergence reached in CG solver after   10 iterations
  CG solver: Calculating converged R, Z, Q2 matrix
----------------------------------------------------------------------------------

----------------------------------------------------------------------------------
 Solving CP-REKS equation for SI between  1 and  2 state vectors...
----------------------------------------------------------------------------------
  CG solver: Constructing Y initial guess
  CG solver: Iteration    1    eps =    0.007708589084
  CG solver: Iteration    2    eps =    0.013247283191
  CG solver: Iteration    3    eps =    0.179440440185
  CG solver: Iteration    4    eps =    0.008970394419
  CG solver: Iteration    5    eps =    0.000498201915
  CG solver: Iteration    6    eps =    0.000068424612
  CG solver: Iteration    7    eps =    0.000010381313
  CG solver: Iteration    8    eps =    0.000001310265
  CG solver: Iteration    9    eps =    0.000000093182
  CG solver: Iteration   10    eps =    0.000000024956
  CG solver: Iteration   11    eps =    0.000000000224
  Convergence reached in CG solver after   11 iterations
  CG solver: Calculating converged R, Z, Q2 matrix
----------------------------------------------------------------------------------

--------------------------------------------------
 Gradient Information
--------------------------------------------------
           1 st state (SSR)
     0.00000000     0.00000000     0.00000000
     0.00000000     0.00000000     0.00000000
     0.00000000     0.00000000     0.00000000
     0.00000000     0.00000000     0.00000000
     0.00000000     0.00000000     0.00000000
     0.00000000     0.00000000     0.00000000

           2 st state (SSR)
     0.00000000     0.00000000     0.00000000
     0.00000000     0.00000000     0.00000000
     0.00000000     0.00000000     0.00000000
     0.00000000     0.00000000     0.00000000
     0.00000000     0.00000000     0.00000000
     0.00000000     0.00000000     0.00000000
--------------------------------------------------
 Coupling Information
--------------------------------------------------
 between  1 and  2 states
--------------------------------------------------
 g vector - difference gradient
    -0.03618081     0.54611188    -4.42379143
    -0.55423988    -0.52017294     4.85205201
     0.17827511     1.51392972     0.03559653
    -0.17051686    -1.50200007    -0.28253991
     0.52495298     1.47471737    -0.25697211
     0.05770947    -1.51258596     0.07565491

 h vector - derivative coupling
     0.05337156    -0.08002071     2.20797747
     0.05344386     0.11216926    -2.31982108
     0.01195232    -0.59778784    -0.09895413
     0.10810923     0.64357111     0.14793289
    -0.16523046    -0.64319880     0.14738983
    -0.06164651     0.56526699    -0.08452499

 G vector - GDV
     0.00000000     0.00000000     0.00000000
     0.00000000     0.00000000     0.00000000
     0.00000000     0.00000000     0.00000000
     0.00000000     0.00000000     0.00000000
     0.00000000     0.00000000     0.00000000
     0.00000000     0.00000000     0.00000000

 H vector - DCV - non-adiabatic coupling
     0.00000000     0.00000000     0.00000000
     0.00000000     0.00000000     0.00000000
     0.00000000     0.00000000     0.00000000
     0.00000000     0.00000000     0.00000000
     0.00000000     0.00000000     0.00000000
     0.00000000     0.00000000     0.00000000
--------------------------------------------------

WARNING!
-> SCC is NOT converged, maximal SCC iterations exceeded

--------------------------------------------------------------------------------
DFTB+ running times                          cpu [s]             wall clock [s]
--------------------------------------------------------------------------------
SCC                                    +     0.42  ( 96.9%)      0.42  ( 96.1%)
      Sparse to dense                        0.02  (  4.6%)      0.02  (  5.2%)
      Dense to sparse                        0.07  ( 15.3%)      0.07  ( 16.6%)
      Range separated Hamiltonian            0.03  (  6.6%)      0.03  (  7.7%)
  Density matrix creation                    0.05  ( 11.8%)      0.05  ( 10.9%)
  Force calculation                          0.01  (  2.8%)      0.01  (  3.0%)
--------------------------------------------------------------------------------
Missing                                +     0.01  (  3.1%)      0.02  (  3.9%)
Total                                  =     0.43  (100.0%)      0.44  (100.0%)
--------------------------------------------------------------------------------
