     6
  Step:   120            Position(A)                                  Velocity(au)
C        -0.03193367    -0.01177528    -0.02710692     0.00003403     0.00001492     0.00061720
N        -0.04705135    -0.06634594     1.34332549    -0.00001641    -0.00000184    -0.00053952
H         0.71166200     0.66703141    -0.53678210    -0.00099557     0.00111918     0.00047765
H         0.69203547    -0.57045143     1.89862684    -0.00102447    -0.00112113    -0.00041826
H        -0.69091708     0.54900375     1.89096645     0.00117394     0.00127674    -0.00036791
H        -0.89134259    -0.25307157    -0.70507429     0.00066868    -0.00142699     0.00045125
