     6
  Step:     0            Position(A)                                  Velocity(au)
C        -0.04236901     0.00499047     0.01363079     0.00002948    -0.00005311    -0.00020562
N        -0.04265177    -0.04951637     1.30456102    -0.00009647     0.00004073     0.00027105
H         0.94251943     0.05305743    -0.54305978    -0.00005891     0.00005285    -0.00013967
H         0.84952286    -0.13025470     1.87638190     0.00095467    -0.00010923     0.00039224
H        -0.91424317    -0.08261424     1.80454847     0.00066706    -0.00025089    -0.00142105
H        -0.99316122     0.11866366    -0.53689376    -0.00057347     0.00037417    -0.00014789
     6
  Step:     1            Position(A)                                  Velocity(au)
C        -0.04218506     0.00470242     0.01212842     0.00003740    -0.00005211    -0.00034241
N        -0.04314051    -0.04931706     1.30634710    -0.00008035     0.00003237     0.00038027
H         0.94197249     0.05341163    -0.54369292    -0.00014045     0.00007596    -0.00009264
H         0.85450899    -0.13075553     1.87836786     0.00085939    -0.00007421     0.00032978
H        -0.91096452    -0.08393137     1.79705361     0.00051392    -0.00023242    -0.00130746
H        -0.99627893     0.12079036    -0.53766917    -0.00056193     0.00040192    -0.00013378
     6
  Step:     2            Position(A)                                  Velocity(au)
C        -0.04195989     0.00442039     0.00988511     0.00004449    -0.00005085    -0.00047566
N        -0.04353070    -0.04916230     1.30872081    -0.00006064     0.00002450     0.00048520
H         0.94098307     0.05388841    -0.54407314    -0.00021973     0.00009733    -0.00004789
H         0.85892373    -0.13106654     1.87998942     0.00074706    -0.00004033     0.00026014
H        -0.90862133    -0.08515674     1.79024613     0.00032655    -0.00021759    -0.00117035
H        -0.99930817     0.12306032    -0.53835720    -0.00054135     0.00042600    -0.00011641
     6
  Step:     3            Position(A)                                  Velocity(au)
C        -0.04169824     0.00414608     0.00692398     0.00005064    -0.00004925    -0.00060352
N        -0.04380400    -0.04904895     1.31165598    -0.00003789     0.00001725     0.00058445
H         0.93956831     0.05447658    -0.54421695    -0.00029456     0.00011652    -0.00000689
H         0.86268305    -0.13119680     1.88121418     0.00062091    -0.00000838     0.00018576
H        -0.90739150    -0.08631216     1.78424807     0.00010939    -0.00020665    -0.00101224
H        -1.00220213     0.12545154    -0.53894287    -0.00051257     0.00044573    -0.00009671
     6
  Step:     4            Position(A)                                  Velocity(au)
C        -0.04140555     0.00388126     0.00327808     0.00005569    -0.00004733    -0.00072391
N        -0.04394547    -0.04897351     1.31511906    -0.00001282     0.00001064     0.00067646
H         0.93775836     0.05516399    -0.54414853    -0.00036231     0.00013348     0.00002894
H         0.86572109    -0.13115825     1.88202300     0.00048450     0.00002125     0.00010918
H        -0.90742383    -0.08741909     1.77916470    -0.00013093    -0.00019928    -0.00083683
H        -1.00491955     0.12793990    -0.53941597    -0.00047665     0.00046080    -0.00007553
     6
  Step:     5            Position(A)                                  Velocity(au)
C        -0.04108803     0.00362744    -0.00100834     0.00005949    -0.00004515    -0.00083450
N        -0.04394448    -0.04893241     1.31906845     0.00001364     0.00000467     0.00075958
H         0.93559825     0.05593916    -0.54389982    -0.00042009     0.00014836     0.00005815
H         0.86799206    -0.13096393     1.88241054     0.00034188     0.00004837     0.00003310
H        -0.90882614    -0.08849578     1.77507837    -0.00038545    -0.00019470    -0.00064902
H        -1.00742509     0.13050083    -0.53977047    -0.00043472     0.00047114    -0.00005367
     6
  Step:     6            Position(A)                                  Velocity(au)
C        -0.04075279     0.00338578    -0.00587890     0.00006187    -0.00004278    -0.00093287
N        -0.04379577    -0.04892224     1.32345399     0.00004041    -0.00000066     0.00083210
H         0.93314873     0.05679196    -0.54351049    -0.00046497     0.00016139     0.00007933
H         0.86947252    -0.13062748     1.88238617     0.00019755     0.00007281    -0.00003962
H        -0.91165342    -0.08955554     1.77204302    -0.00064321    -0.00019193    -0.00045467
H        -1.00968974     0.13310973    -0.54000490    -0.00038804     0.00047671    -0.00003206
     6
  Step:     7            Position(A)                                  Velocity(au)
C        -0.04040783     0.00315710    -0.01126454     0.00006269    -0.00004027    -0.00101663
N        -0.04350025    -0.04893967     1.32821680     0.00006625    -0.00000538     0.00089239
H         0.93048622     0.05771352    -0.54302767    -0.00049423     0.00017275     0.00009123
H         0.87016392    -0.13016349     1.88197497     0.00005649     0.00009431    -0.00010596
H        -0.91589776    -0.09060592     1.77007957    -0.00089175    -0.00018991    -0.00026039
H        -1.01169134     0.13574194    -0.54012293    -0.00033801     0.00047749    -0.00001167
     6
  Step:     8            Position(A)                                  Velocity(au)
C        -0.04006189     0.00294192    -0.01708385     0.00006184    -0.00003768    -0.00108367
N        -0.04306563    -0.04898151     1.33328968     0.00008989    -0.00000949     0.00093907
H         0.92770145     0.05869591    -0.54250496    -0.00050562     0.00018257     0.00009290
H         0.87009509    -0.12958806     1.88121828    -0.00007598     0.00011255    -0.00016294
H        -0.92148201    -0.09164862     1.76917307    -0.00111817    -0.00018759    -0.00007302
H        -1.01341518     0.13837249    -0.54013356    -0.00028615     0.00047348     0.00000650
     6
  Step:     9            Position(A)                                  Velocity(au)
C        -0.03972419     0.00274050    -0.02324470     0.00005930    -0.00003507    -0.00113250
N        -0.04250655    -0.04904462     1.33859840     0.00011011    -0.00001302     0.00097123
H         0.92489654     0.05973184    -0.54200060    -0.00049767     0.00019097     0.00008384
H         0.86932396    -0.12891925     1.88017359    -0.00019449     0.00012718    -0.00020780
H        -0.92825928    -0.09267979     1.76927231    -0.00131045    -0.00018410     0.00010089
H        -1.01485480     0.14097636    -0.54005103    -0.00023415     0.00046483     0.00002156
     6
  Step:    10            Position(A)                                  Velocity(au)
C        -0.03940402     0.00255282    -0.02964737     0.00005514    -0.00003250    -0.00116253
N        -0.04184409    -0.04912592     1.34406409     0.00012592    -0.00001596     0.00098864
H         0.92218049     0.06081447    -0.54157486    -0.00046999     0.00019809     0.00006410
H         0.86793748    -0.12817718     1.87891301    -0.00029413     0.00013792    -0.00023828
H        -0.93601960    -0.09369091     1.77029228    -0.00145894    -0.00017875     0.00025576
H        -1.01601275     0.14352909    -0.53989438    -0.00018376     0.00045189     0.00003273
     6
  Step:    11            Position(A)                                  Velocity(au)
C        -0.03911017     0.00237860    -0.03618947     0.00004954    -0.00003003    -0.00117443
N        -0.04110447    -0.04922238     1.34960693     0.00013663    -0.00001836     0.00099206
H         0.91966318     0.06193759    -0.54128686    -0.00042344     0.00020414     0.00003434
H         0.86604876    -0.12738351     1.87752030    -0.00037102     0.00014465    -0.00025295
H        -0.94450462    -0.09467016     1.77212022    -0.00155776    -0.00017118     0.00038766
H        -1.01690098     0.14600816    -0.53968660    -0.00013670     0.00043536     0.00003946
     6
  Step:    12            Position(A)                                  Velocity(au)
C        -0.03885039     0.00221722    -0.04277283     0.00006937    -0.00004498    -0.00189856
N        -0.04031710    -0.04933109     1.35515144     0.00023039    -0.00003285     0.00159525
H         0.91744810     0.06309598    -0.54119112    -0.00058420     0.00033979    -0.00000690
H         0.86379099    -0.12656058     1.87608608    -0.00068586     0.00023923    -0.00040773
H        -0.95342925    -0.09560402     1.77462482    -0.00260472    -0.00026173     0.00080265
H        -1.01754056     0.14839469    -0.53945336    -0.00015331     0.00067526     0.00006728
     6
  Step:    13            Position(A)                                  Velocity(au)
C        -0.03848365     0.00195272    -0.05302768     0.00003570    -0.00002911    -0.00103125
N        -0.03902733    -0.04950417     1.36379514     0.00013277    -0.00001691     0.00087242
H         0.91465929     0.06503176    -0.54169511    -0.00023588     0.00020631    -0.00010305
H         0.85989454    -0.12524729     1.87387790    -0.00040246     0.00013368    -0.00021591
H        -0.96801761    -0.09709243     1.77937570    -0.00150714    -0.00015723     0.00051416
H        -1.01855979     0.15219116    -0.53941024    -0.00012493     0.00039913    -0.00003024
     6
  Step:    14            Position(A)                                  Velocity(au)
C        -0.03830703     0.00179458    -0.05877399     0.00002673    -0.00002703    -0.00100053
N        -0.03829264    -0.04960325     1.36864700     0.00012546    -0.00001803     0.00084354
H         0.91358258     0.06620942    -0.54241843    -0.00014247     0.00021082    -0.00015460
H         0.85762419    -0.12450480     1.87275652    -0.00039069     0.00012798    -0.00017526
H        -0.97638112    -0.09793612     1.78244961    -0.00143748    -0.00014091     0.00056477
H        -1.01916317     0.15437614    -0.53958900    -0.00009129     0.00037473    -0.00003458
     6
  Step:    15            Position(A)                                  Velocity(au)
C        -0.03818158     0.00164724    -0.06433640     0.00001781    -0.00002541    -0.00097188
N        -0.03760924    -0.04970795     1.37332939     0.00011548    -0.00001902     0.00081717
H         0.91304896     0.06741461    -0.54344246    -0.00004529     0.00021719    -0.00020982
H         0.85547865    -0.12380076     1.87189702    -0.00036119     0.00012086    -0.00012464
H        -0.98426501    -0.09868505     1.78575917    -0.00134699    -0.00012442     0.00060199
H        -1.01959160     0.15642668    -0.53980111    -0.00006343     0.00035351    -0.00004222
     6
  Step:    16            Position(A)                                  Velocity(au)
C        -0.03810629     0.00150822    -0.06972789     0.00000911    -0.00002422    -0.00094658
N        -0.03699113    -0.04981766     1.37785719     0.00010323    -0.00001995     0.00079422
H         0.91307209     0.06865733    -0.54478328     0.00005410     0.00022559    -0.00026803
H         0.85355326    -0.12314262     1.87135179    -0.00031583     0.00011257    -0.00006498
H        -0.99156274    -0.09933838     1.78923455    -0.00124004    -0.00010776     0.00062894
H        -1.01987805     0.15836047    -0.54006480    -0.00004122     0.00033557    -0.00005318
     6
  Step:    17            Position(A)                                  Velocity(au)
C        -0.03807929     0.00137517    -0.07496830     0.00000074    -0.00002342    -0.00092437
N        -0.03644979    -0.04993208     1.38225002     0.00008897    -0.00002085     0.00077431
H         0.91365658     0.06994839    -0.54645298     0.00015424     0.00023586    -0.00032830
H         0.85193124    -0.12253633     1.87116717    -0.00025616     0.00010320     0.00000289
H        -0.99819306    -0.09989543     1.79282334    -0.00111874    -0.00009078     0.00064757
H        -1.02005457     0.16019577    -0.54039839    -0.00002446     0.00032051    -0.00006747
     6
  Step:    18            Position(A)                                  Velocity(au)
C        -0.03809803     0.00124608    -0.08007601    -0.00000716    -0.00002292    -0.00090427
N        -0.03599514    -0.05005108     1.38652549     0.00007290    -0.00002172     0.00075651
H         0.91479877     0.07129772    -0.54845855     0.00025336     0.00024766    -0.00038938
H         0.85068558    -0.12198733     1.87138419    -0.00018388     0.00009274     0.00007795
H        -1.00408680    -0.10035461     1.79648399    -0.00098427    -0.00007325     0.00065907
H        -1.02015188     0.16194857    -0.54082011    -0.00001298     0.00030774    -0.00008504
     6
  Step:    19            Position(A)                                  Velocity(au)
C        -0.03815921     0.00111932    -0.08506385    -0.00001442    -0.00002266    -0.00088517
N        -0.03563587    -0.05017453     1.39069596     0.00005529    -0.00002255     0.00073979
H         0.91648521     0.07271333    -0.55080020     0.00034933     0.00026056    -0.00044980
H         0.84987836    -0.12150093     1.87203744    -0.00010119     0.00008124     0.00015875
H        -1.00918178    -0.10071326     1.80018136    -0.00083797    -0.00005504     0.00066423
H        -1.02019952     0.16363148    -0.54134779    -0.00000666     0.00029664    -0.00010576
     6
  Step:    20            Position(A)                                  Velocity(au)
C        -0.03825869     0.00099359    -0.08993850    -0.00002087    -0.00002259    -0.00086617
N        -0.03537909    -0.05030231     1.39476813     0.00003649    -0.00002334     0.00072332
H         0.91869095     0.07420088    -0.55347023     0.00043977     0.00027415    -0.00050801
H         0.84955814    -0.12108214     1.87315297    -0.00001094     0.00006880     0.00024343
H        -1.01342342    -0.10096791     1.80388480    -0.00068180    -0.00003608     0.00066384
H        -1.02022607     0.16525374    -0.54199843    -0.00000535     0.00028671    -0.00012942
     6
  Step:    21            Position(A)                                  Velocity(au)
C        -0.03839144     0.00086794    -0.09470160    -0.00002634    -0.00002266    -0.00084667
N        -0.03522987    -0.05043425     1.39874423     0.00001694    -0.00002410     0.00070656
H         0.92137849     0.07576373    -0.55645269     0.00052234     0.00028805    -0.00056250
H         0.84975663    -0.12073536     1.87474607     0.00008346     0.00005560     0.00032981
H        -1.01676805    -0.10111471     1.80756780    -0.00051836    -0.00001636     0.00065875
H        -1.02025903     0.16682170    -0.54278779    -0.00000885     0.00027755    -0.00015576
     6
  Step:    22            Position(A)                                  Velocity(au)
C        -0.03855155     0.00074169    -0.09935133    -0.00003069    -0.00002282    -0.00082630
N        -0.03519080    -0.05057019     1.40262336    -0.00000286    -0.00002481     0.00068919
H         0.92449805     0.07740330    -0.55972387     0.00059485     0.00030197    -0.00061197
H         0.85048595    -0.12046403     1.87681969     0.00017821     0.00004183     0.00041553
H        -1.01918636    -0.10114979     1.81120853    -0.00035075     0.00000407     0.00064994
H        -1.02032450     0.16833942    -0.54373007    -0.00001689     0.00026883    -0.00018445
     6
  Step:    23            Position(A)                                  Velocity(au)
C        -0.03873245     0.00061439    -0.10388392    -0.00003380    -0.00002303    -0.00080492
N        -0.03526165    -0.05070997     1.40640289    -0.00002237    -0.00002550     0.00067106
H         0.92798885     0.07911941    -0.56325328     0.00065550     0.00031567    -0.00065532
H         0.85173703    -0.12027047     1.87936373     0.00026943     0.00002774     0.00049820
H        -1.02066576    -0.10106953     1.81479034    -0.00018231     0.00002513     0.00063845
H        -1.02044668     0.16980911    -0.54483754    -0.00002904     0.00026028    -0.00021512
     6
  Step:    24            Position(A)                                  Velocity(au)
C        -0.03892707     0.00048576    -0.10829468    -0.00003561    -0.00002328    -0.00078253
N        -0.03543932    -0.05085348     1.41007940    -0.00004106    -0.00002616     0.00065217
H         0.93178122     0.08091070    -0.56700500     0.00070292     0.00032901    -0.00069173
H         0.85347950    -0.12015583     1.88235518     0.00035332     0.00001352     0.00057557
H        -1.02121193    -0.10087059     1.81830222    -0.00001651     0.00004676     0.00062538
H        -1.02064721     0.17123132    -0.54612030    -0.00004481     0.00025164    -0.00024737
     6
  Step:    25            Position(A)                                  Velocity(au)
C        -0.03912811     0.00035571    -0.11257875    -0.00003611    -0.00002353    -0.00075920
N        -0.03571787    -0.05100062     1.41364931    -0.00005844    -0.00002680     0.00063258
H         0.93579918     0.08277514    -0.57093922     0.00073625     0.00034192    -0.00072066
H         0.85566288    -0.12012023     1.88575905     0.00042649    -0.00000065     0.00064562
H        -1.02084919    -0.10055001     1.82173910     0.00014322     0.00006889     0.00061187
H        -1.02094462     0.17260518    -0.54758615    -0.00006358     0.00024269    -0.00028077
     6
  Step:    26            Position(A)                                  Velocity(au)
C        -0.03932836     0.00022429    -0.11673167    -0.00003533    -0.00002376    -0.00073508
N        -0.03608873    -0.05115134     1.41710933    -0.00007405    -0.00002744     0.00061241
H         0.93996319     0.08471042    -0.57501375     0.00075512     0.00035440    -0.00074186
H         0.85821905    -0.12016305     1.88952996     0.00048604    -0.00001467     0.00070667
H        -1.01962032    -0.10010499     1.82510192     0.00029359     0.00009151     0.00059902
H        -1.02135379     0.17392834    -0.54924050    -0.00008465     0.00023317    -0.00031489
     6
  Step:    27            Position(A)                                  Velocity(au)
C        -0.03952086     0.00009163    -0.12074961    -0.00003335    -0.00002395    -0.00071033
N        -0.03654101    -0.05130562     1.42045667    -0.00008752    -0.00002807     0.00059178
H         0.94419281     0.08671449    -0.57918554     0.00075963     0.00036655    -0.00075533
H         0.86106558    -0.12028329     1.89361419     0.00052980    -0.00002852     0.00075747
H        -1.01758568    -0.09953278     1.82839759     0.00043157     0.00011464     0.00058792
H        -1.02188559     0.17519697    -0.55108638    -0.00010729     0.00022281    -0.00034933
     6
  Step:    28            Position(A)                                  Velocity(au)
C        -0.03969920    -0.00004202    -0.12462960    -0.00003029    -0.00002410    -0.00068513
N        -0.03706188    -0.05146344     1.42368916    -0.00009855    -0.00002870     0.00057082
H         0.94840930     0.08878602    -0.58341198     0.00075035     0.00037858    -0.00076128
H         0.86410972    -0.12048010     1.89795205     0.00055630    -0.00004227     0.00079720
H        -1.01482182    -0.09883037     1.83163882     0.00055441     0.00013835     0.00057961
H        -1.02254668     0.17640567    -0.55312461    -0.00013073     0.00021133    -0.00038373
     6
  Step:    29            Position(A)                                  Velocity(au)
C        -0.03985768    -0.00017640    -0.12836943    -0.00002628    -0.00002420    -0.00065961
N        -0.03763700    -0.05162480     1.42680514    -0.00010690    -0.00002933     0.00054960
H         0.95253796     0.09092498    -0.58765227     0.00072822     0.00039080    -0.00076018
H         0.86725257    -0.12075336     1.90248039     0.00056484    -0.00005612     0.00082547
H        -1.01141968    -0.09799406     1.83484378     0.00065977     0.00016283     0.00057503
H        -1.02333949     0.17754727    -0.55535414    -0.00015424     0.00019839    -0.00041781
     6
  Step:    30            Position(A)                                  Velocity(au)
C        -0.03999150    -0.00031121    -0.13196734    -0.00002149    -0.00002425    -0.00063383
N        -0.03825102    -0.05178968     1.42980313    -0.00011243    -0.00002995     0.00052815
H         0.95651022     0.09313336    -0.59186845     0.00069451     0.00040363    -0.00075264
H         0.87039314    -0.12110438     1.90713486     0.00055541    -0.00007041     0.00084231
H        -1.00748233    -0.09701896     1.83803567     0.00074573     0.00018837     0.00057504
H        -1.02426246     0.17861266    -0.55777246    -0.00017715     0.00018363    -0.00045137
     6
  Step:    31            Position(A)                                  Velocity(au)
C        -0.04009679    -0.00044624    -0.13542170    -0.00001611    -0.00002428    -0.00060779
N        -0.03888796    -0.05195804     1.43268162    -0.00011509    -0.00003056     0.00050646
H         0.96026539     0.09541593    -0.59602647     0.00065079     0.00041770    -0.00073946
H         0.87343227    -0.12153678     1.91185231     0.00052866    -0.00008566     0.00084813
H        -1.00312236    -0.09589822     1.84124196     0.00081089     0.00021539     0.00058035
H        -1.02531058     0.17959042    -0.56037633    -0.00019894     0.00016659    -0.00048440
     6
  Step:    32            Position(A)                                  Velocity(au)
C        -0.04017078    -0.00058137    -0.13873072    -0.00001033    -0.00002430    -0.00058146
N        -0.03953175    -0.05212977     1.43543885    -0.00011489    -0.00003115     0.00048446
H         0.96375203     0.09778140    -0.60009702     0.00059884     0.00043385    -0.00072160
H         0.87627592    -0.12205759     1.91657271     0.00048576    -0.00010262     0.00084366
H        -0.99845895    -0.09462209     1.84449369     0.00085436     0.00024457     0.00059152
H        -1.02647622     0.18046644    -0.56316279    -0.00021925     0.00014673    -0.00051710
     6
  Step:    33            Position(A)                                  Velocity(au)
C        -0.04021175    -0.00071670    -0.14189226    -0.00000434    -0.00002439    -0.00055463
N        -0.04016651    -0.05230471     1.43807277    -0.00011190    -0.00003170     0.00046202
H         0.96692938     0.10024393    -0.60405655     0.00054076     0.00045331    -0.00070023
H         0.87883787    -0.12267876     1.92124069     0.00042828    -0.00012239     0.00082985
H        -0.99361491    -0.09317658     1.84782453     0.00087577     0.00027684     0.00060895
H        -1.02775048     0.18122325    -0.56613067    -0.00023808     0.00012337    -0.00055002
     6
  Step:    34            Position(A)                                  Velocity(au)
C        -0.04021907    -0.00085273    -0.14490240     0.00000166    -0.00002463    -0.00052669
N        -0.04077693    -0.05248254     1.44058007    -0.00010623    -0.00003217     0.00043873
H         0.96976941     0.10282566    -0.60788892     0.00047916     0.00047787    -0.00067699
H         0.88104162    -0.12341944     1.92580689     0.00035806    -0.00014655     0.00080786
H        -0.98871375    -0.09154153     1.85126986     0.00087524     0.00031352     0.00063288
H        -1.02912545     0.18183925    -0.56928320    -0.00025597     0.00009571    -0.00058441
     6
  Step:    35            Position(A)                                  Velocity(au)
C        -0.04019328    -0.00099077    -0.14775215     0.00000746    -0.00002528    -0.00049608
N        -0.04134845    -0.05266259     1.44295402    -0.00009803    -0.00003245     0.00041350
H         0.97226050     0.10556065    -0.61158874     0.00041769     0.00051018    -0.00065452
H         0.88282159    -0.12430926     1.93022892     0.00027713    -0.00017737     0.00077906
H        -0.98387705    -0.08968836     1.85486590     0.00085327     0.00035628     0.00066341
H        -1.03059835     0.18228810    -0.57263278    -0.00027460     0.00006303    -0.00062278
     6
  Step:    36            Position(A)                                  Velocity(au)
C        -0.04013614    -0.00113389    -0.15042048     0.00001283    -0.00002679    -0.00045936
N        -0.04186739    -0.05284346     1.44517960    -0.00008748    -0.00003232     0.00038398
H         0.97441547     0.10850057    -0.61516939     0.00036219     0.00055364    -0.00063785
H         0.88412422    -0.12539242     1.93447263     0.00018781    -0.00021735     0.00074509
H        -0.97922251    -0.08757854     1.85864914     0.00081072     0.00040617     0.00070059
H        -1.03217992     0.18254037    -0.57621053    -0.00029785     0.00002594    -0.00067004
     6
  Step:    37            Position(A)                                  Velocity(au)
C        -0.04005066    -0.00128870    -0.15286009     0.00001762    -0.00002998    -0.00041066
N        -0.04232122    -0.05302198     1.44722380    -0.00007491    -0.00003138     0.00034614
H         0.97628789     0.11171698    -0.61868140     0.00032111     0.00060926    -0.00063571
H         0.88490993    -0.12672608     1.93851409     0.00009306    -0.00026577     0.00070800
H        -0.97486210    -0.08517191     1.86265625     0.00074906     0.00045955     0.00074439
H        -1.03391037     0.18257657    -0.58008342    -0.00033211    -0.00000983    -0.00073342
     6
  Step:    38            Position(A)                                  Velocity(au)
C        -0.03994032    -0.00146709    -0.15498496     0.00002192    -0.00003537    -0.00034608
N        -0.04270006    -0.05319220     1.44902704    -0.00006104    -0.00002928     0.00029729
H         0.97798468     0.11527259    -0.62223539     0.00029945     0.00066949    -0.00065558
H         0.88515859    -0.12834644     1.94234217    -0.00000335    -0.00031353     0.00066972
H        -0.97089666    -0.08247057     1.86692315     0.00067157     0.00050437     0.00079412
H        -1.03587139     0.18243110    -0.58436257    -0.00038063    -0.00003195    -0.00081557
     6
  Step:    39            Position(A)                                  Velocity(au)
C        -0.03980716    -0.00168165    -0.15670494     0.00002922    -0.00004778    -0.00030271
N        -0.04299932    -0.05334728     1.45052660    -0.00005253    -0.00002945     0.00026963
H         0.97961471     0.11915480    -0.62596465     0.00032779     0.00081162    -0.00078102
H         0.88487273    -0.13020927     1.94595448    -0.00011050    -0.00039206     0.00070929
H        -0.96740124    -0.07956855     1.87147866     0.00065583     0.00059483     0.00095315
H        -1.03813898     0.18222158    -0.58914413    -0.00049127    -0.00003575    -0.00102128
     6
  Step:    40            Position(A)                                  Velocity(au)
C        -0.03962763    -0.00194246    -0.15834165     0.00003498    -0.00004572    -0.00029044
N        -0.04325972    -0.05351245     1.45197743    -0.00004073    -0.00003034     0.00025531
H         0.98117695     0.12349082    -0.63021089     0.00023011     0.00075935    -0.00074161
H         0.88401177    -0.13221243     1.94976112    -0.00020077    -0.00033979     0.00066058
H        -0.96397788    -0.07641379     1.87688933     0.00057385     0.00055486     0.00099647
H        -1.04078426     0.18213719    -0.59477334    -0.00045403    -0.00000793    -0.00100245
     6
  Step:    41            Position(A)                                  Velocity(au)
C        -0.03941883    -0.00218920    -0.15992890     0.00003978    -0.00004306    -0.00028280
N        -0.04345145    -0.05368406     1.45336065    -0.00002807    -0.00003162     0.00024392
H         0.98216899     0.12758371    -0.63419665     0.00012618     0.00072355    -0.00069162
H         0.88264413    -0.13398106     1.95328710    -0.00029173    -0.00030610     0.00060972
H        -0.96103133    -0.07340943     1.88253965     0.00048593     0.00053796     0.00103991
H        -1.04317882     0.18213352    -0.60027156    -0.00040441    -0.00000283    -0.00097773
     6
  Step:    42            Position(A)                                  Velocity(au)
C        -0.03918621    -0.00242022    -0.16147946     0.00004363    -0.00004023    -0.00027646
N        -0.04357113    -0.05386334     1.45468384    -0.00001505    -0.00003305     0.00023325
H         0.98257695     0.13151887    -0.63788464     0.00002152     0.00070096    -0.00063705
H         0.88077494    -0.13560872     1.95652623    -0.00038039    -0.00028672     0.00055851
H        -0.95858633    -0.07044487     1.88842747     0.00039518     0.00053764     0.00108238
H        -1.04527133     0.18210579    -0.60562160    -0.00034704    -0.00001314    -0.00095083
     6
  Step:    43            Position(A)                                  Velocity(au)
C        -0.03893491    -0.00263541    -0.16299494     0.00004660    -0.00003743    -0.00027012
N        -0.04361842    -0.05405061     1.45594746    -0.00000223    -0.00003450     0.00022249
H         0.98240765     0.13535764    -0.64126171    -0.00008111     0.00068771    -0.00058108
H         0.87842553    -0.13716093     1.95948120    -0.00046403    -0.00027730     0.00050839
H        -0.95664870    -0.06744683     1.89454356     0.00030497     0.00054827     0.00112250
H        -1.04702756     0.18198776    -0.61081656    -0.00028419    -0.00003321    -0.00092280
     6
  Step:    44            Position(A)                                  Velocity(au)
C        -0.03866963    -0.00283514    -0.16447385     0.00004874    -0.00003470    -0.00026346
N        -0.04359580    -0.05424579     1.45715021     0.00000995    -0.00003593     0.00021150
H         0.98167787     0.13914235    -0.64432603    -0.00018023     0.00068097    -0.00052524
H         0.87563104    -0.13868271     1.96216184    -0.00054035    -0.00027485     0.00046053
H        -0.95520564    -0.06436717     1.90087074     0.00021853     0.00056621     0.00115884
H        -1.04842159     0.18173761    -0.61585108    -0.00021709    -0.00005955    -0.00089373
     6