 Fermi distribution function

Calculation with static geometry


********************************************************************************
 iSCC Total electronic   Diff electronic      SCC error    
    9   -0.54133684E+01   -0.15990587E-09    0.76232414E-06
********************************************************************************

 Total charge:     1.00000000

 Atomic gross charges (e)
 Atom           Charge
    1       0.24835604
    2      -0.13390921
    3       0.16132358
    4       0.26941510
    5       0.30543934
    6       0.14937515

Nr. of electrons (up):     12.00000000
Atom populations (up)
 Atom       Population
    1       3.75164396
    2       5.13390921
    3       0.83867642
    4       0.73058490
    5       0.69456066
    6       0.85062485

l-shell populations (up)
 Atom Sh.   l       Population
    1   1   0       1.28454073
    1   2   1       2.46710323
    2   1   0       1.41103088
    2   2   1       3.72287833
    3   1   0       0.83867642
    4   1   0       0.73058490
    5   1   0       0.69456066
    6   1   0       0.85062485

Orbital populations (up)
 Atom Sh.   l   m       Population  Label
    1   1   0   0       1.28454073  s
    1   2   1  -1       0.54327224  p_y
    1   2   1   0       0.90272840  p_z
    1   2   1   1       1.02110259  p_x
    2   1   0   0       1.41103088  s
    2   2   1  -1       1.29204564  p_y
    2   2   1   0       1.10625858  p_z
    2   2   1   1       1.32457411  p_x
    3   1   0   0       0.83867642  s
    4   1   0   0       0.73058490  s
    5   1   0   0       0.69456066  s
    6   1   0   0       0.85062485  s

Fermi level:                        -0.4860069899 H          -13.2249 eV
Band energy:                        -8.9342095344 H         -243.1122 eV
TS:                                  0.0000000000 H            0.0000 eV
Band free energy (E-TS):            -8.9342095344 H         -243.1122 eV
Extrapolated E(0K):                 -8.9342095344 H         -243.1122 eV
Input / Output electrons (q):     12.0000000000     12.0000000000

Energy H0:                          -5.5481944562 H         -150.9741 eV
Energy SCC:                          0.1348260956 H            3.6688 eV
Total Electronic energy:            -5.4133683605 H         -147.3052 eV
Repulsive energy:                    0.2144655100 H            5.8359 eV
Total energy:                       -5.1989028505 H         -141.4693 eV
Extrapolated to 0:                  -5.1989028505 H         -141.4693 eV
Total Mermin free energy:           -5.1989028505 H         -141.4693 eV
Force related energy:               -5.1989028505 H         -141.4693 eV

SCC converged

Excitation Energy:                   0.1060692807 H            2.8863 eV

Total Forces
    1      0.017177237145      0.003843981659     -0.031209879420
    2     -0.015893454736      0.016902003378      0.026054608989
    3     -0.003949471466      0.009164743488     -0.001847506167
    4     -0.004721797958     -0.015306068488      0.000733911039
    5      0.011215568533      0.000202248122      0.004067288434
    6     -0.003828081519     -0.014806908159      0.002201577124

Maximal derivative component:        0.312099E-01 au


