     6
  Step:   120            Position(A)                                  Velocity(au)
C        -0.04017379    -0.03708878    -0.12029340     0.00006543    -0.00002940     0.00004203
N        -0.04836218    -0.12802237     1.41815479     0.00003190    -0.00001483    -0.00009667
H         0.92587943     0.36599766    -0.44872287    -0.00071184    -0.00016697     0.00092612
H         0.82484275     0.32899583     1.77150561    -0.00032150     0.00014963    -0.00085192
H        -0.85429418     0.41178375     1.76530940    -0.00041838     0.00033143    -0.00023454
H        -0.95860012     0.44444629    -0.46979807     0.00022878     0.00024234     0.00100282
