|===============================================================================
|
|  DFTB+ release 20.1
|
|  Copyright (C) 2006 - 2020  DFTB+ developers group
|
|===============================================================================
|
|  When publishing results obtained with DFTB+, please cite the following
|  reference:
|
|  * DFTB+, a software package for efficient approximate density functional
|    theory based atomistic simulations, J. Chem. Phys. 152, 124101 (2020).
|    [doi: 10.1063/1.5143190]
|
|  You should also cite additional publications crediting the parametrization
|  data you use. Please consult the documentation of the SK-files for the
|  references.
|
|===============================================================================

Reading input file 'dftb_in.hsd'
Parser version: 8

--------------------------------------------------------------------------------
Reading SK-files:
Done.


Processed input in HSD format written to 'dftb_pin.hsd'

Starting initialization...
--------------------------------------------------------------------------------
OpenMP threads:              1
Chosen random seed:          510227570
Mode:                        Static calculation
Self consistent charges:     Yes
SCC-tolerance:                 0.100000E-05
Max. scc iterations:                   1000
Shell resolved Hubbard:      No
Spin polarisation:           No
Nr. of up electrons:             6.000000
Nr. of down electrons:           6.000000
Periodic boundaries:         No
Electronic solver:           Relatively robust
Maximal SCC-cycles:                    1000
Initial charges:             Set automatically (system chrg:   0.100E+01)
Included shells:             C:  s, p
                             N:  s, p
                             H:  s
Spin coupling constants:     C   1(s)-1(s):  -0.455900E-01
                             C   1(s)-2(p):  -0.293000E-01
                             C   2(p)-1(s):  -0.293000E-01
                             C   2(p)-2(p):  -0.275500E-01
                             N   1(s)-1(s):  -0.468700E-01
                             N   1(s)-2(p):  -0.317000E-01
                             N   2(p)-1(s):  -0.317000E-01
                             N   2(p)-2(p):  -0.307200E-01
                             H   1(s)-1(s):  -0.792500E-01
Range separated hybrid:      Yes
  Screening parameter omega:   0.300000E+00
  Range separated algorithm:   MatrixBased
Extra options:
                             Mulliken analysis
                             Force calculation
Force type                   original
                             Eigenvector printing


REKS Calcuation:             Yes
SSR(2,2) Calcuation:         Yes
Energy Functional:           (PPS+OSS)/2
Number of Core Orbitals:                  5
Number of Active Orbitals:                2
Number of Basis:                         12
Number of States:                         2
State-Averaging Weight:          0.500000
                                 0.500000
State of Interest:                        1
Initial Guess:               Diagonalize H0 matrix
Newton-Raphson for FON opt:  Yes
NR max. Iterations:                      50
Level Shifting:              Yes
Shift Value:                     0.300000
W Scale Factor:              C  =    3.000000
                             N  =    3.000000
                             H  =    3.000000
Transition Dipole:           No
Gradient of Microstate:      No
CP-REKS Solver:              Preconditioned Conjugate-Gradient
CG max. Iterations:                     100
CG Tolerance:                  0.100000E-07
Memory for A and Hxc:        Direct Updating Without Saving
Non-Adiabatic Coupling:      Yes

--------------------------------------------------------------------------------

***  Geometry step: 0

  iSCC       reks energy        Diff energy         x_a       SCC error   
    1       -6.2643633697       0.0000000000     0.999289    1.18089190
    2       -6.2765423369      -0.0121789672     0.999693    0.09536695
    3       -6.2805835640      -0.0040412270     0.999826    0.04182740
    4       -6.2827882578      -0.0022046938     0.999885    0.02118186
    5       -6.2841734469      -0.0013851892     0.999915    0.01129100
    6       -6.2850905360      -0.0009170891     0.999931    0.00778773
    7       -6.2857045026      -0.0006139666     0.999941    0.00702702
    8       -6.2861126776      -0.0004081751     0.999946    0.00608594
    9       -6.2863806744      -0.0002679968     0.999950    0.00512282
   10       -6.2865544996      -0.0001738252     0.999952    0.00422327
   11       -6.2866661502      -0.0001116506     0.999953    0.00342799
   12       -6.2867373798      -0.0000712296     0.999954    0.00275019
   13       -6.2867826397      -0.0000452598     0.999955    0.00221434
   14       -6.2868113488      -0.0000287091     0.999955    0.00184994
   15       -6.2868295609      -0.0000182122     0.999955    0.00154027
   16       -6.2868411302      -0.0000115693     0.999956    0.00127889
   17       -6.2868484964      -0.0000073662     0.999956    0.00105938
   18       -6.2868531997      -0.0000047033     0.999956    0.00087575
   19       -6.2868562120      -0.0000030124     0.999956    0.00072264
   20       -6.2868581475      -0.0000019354     0.999956    0.00059533
   21       -6.2868593948      -0.0000012474     0.999955    0.00048972
   22       -6.2868602011      -0.0000008062     0.999955    0.00040231
   23       -6.2868607235      -0.0000005225     0.999955    0.00033010
   24       -6.2868610629      -0.0000003394     0.999955    0.00027056
   25       -6.2868612839      -0.0000002210     0.999955    0.00022154
   26       -6.2868614280      -0.0000001441     0.999955    0.00018124
   27       -6.2868615221      -0.0000000941     0.999955    0.00014815
   28       -6.2868615837      -0.0000000616     0.999955    0.00012102
   29       -6.2868616240      -0.0000000403     0.999955    0.00009879
   30       -6.2868616505      -0.0000000264     0.999955    0.00008060
   31       -6.2868616678      -0.0000000173     0.999955    0.00006572
   32       -6.2868616792      -0.0000000114     0.999955    0.00005356
   33       -6.2868616867      -0.0000000075     0.999955    0.00004364
   34       -6.2868616916      -0.0000000049     0.999955    0.00003554
   35       -6.2868616948      -0.0000000032     0.999955    0.00002893
   36       -6.2868616969      -0.0000000021     0.999955    0.00002355
   37       -6.2868616983      -0.0000000014     0.999955    0.00001916
   38       -6.2868616993      -0.0000000009     0.999955    0.00001560
   39       -6.2868616999      -0.0000000006     0.999955    0.00001271
   40       -6.2868617003      -0.0000000004     0.999955    0.00001035
   41       -6.2868617005      -0.0000000003     0.999955    0.00000843
   42       -6.2868617007      -0.0000000002     0.999955    0.00000686
   43       -6.2868617008      -0.0000000001     0.999955    0.00000558
   44       -6.2868617009      -0.0000000001     0.999955    0.00000454
   45       -6.2868617009      -0.0000000000     0.999955    0.00000369
   46       -6.2868617010      -0.0000000000     0.999955    0.00000300
   47       -6.2868617010      -0.0000000000     0.999955    0.00000244
   48       -6.2868617010      -0.0000000000     0.999955    0.00000199
   49       -6.2868617010      -0.0000000000     0.999955    0.00000161
   50       -6.2868617010      -0.0000000000     0.999955    0.00000131
   51       -6.2868617010      -0.0000000000     0.999955    0.00000107
   52       -6.2868617010      -0.0000000000     0.999955    0.00000087
  
--------------------------------------------------
 Final SA-REKS(2,2) energy:      -6.28686170
  
 State     Energy      FON(1)    FON(2)   Spin
  PPS   -6.41110193   1.999910  0.000090  0.00
  OSS   -6.16262147   1.000000  1.000000  0.00
 Trip   -6.24188821   1.000000  1.000000  1.00
--------------------------------------------------

 Lagrangian Wab:   0.00341484  0.00341471

--------------------------------------------------
 SSR: 2SI-2SA-REKS(2,2) Hamiltonian matrix
               PPS           OSS
   PPS    -6.41110193    0.00479687
   OSS     0.00479687   -6.16262147
--------------------------------------------------

----------------------------------------------------------------
 SSR: 2SI-2SA-REKS(2,2) states
                    E_n       C_{PPS}    C_{OSS}
 SSR state  1   -6.41119450  -0.999814   0.019294
 SSR state  2   -6.16252890  -0.019294  -0.999814
----------------------------------------------------------------

 unrelaxed SSR FONs for S0:  1.999538  0.000462

Total Energy:                       -6.4111945020 H         -174.4575 eV
Extrapolated to 0:                  -6.4111945020 H         -174.4575 eV

----------------------------------------------------------------------------------
 Solving CP-REKS equation for  1 state vector...
----------------------------------------------------------------------------------
  CG solver: Constructing Y initial guess
  CG solver: Iteration    1    eps =    0.000057045793
  CG solver: Iteration    2    eps =    0.000019610715
  CG solver: Iteration    3    eps =    0.000000851980
  CG solver: Iteration    4    eps =    0.000000231724
  CG solver: Iteration    5    eps =    0.000000015734
  CG solver: Iteration    6    eps =    0.000000000853
  Convergence reached in CG solver after    6 iterations
  CG solver: Calculating converged R, Z, Q2 matrix
----------------------------------------------------------------------------------

----------------------------------------------------------------------------------
 Solving CP-REKS equation for SI between  1 and  2 state vectors...
----------------------------------------------------------------------------------
  CG solver: Constructing Y initial guess
  CG solver: Iteration    1    eps =    0.001156063068
  CG solver: Iteration    2    eps =    0.001359822949
  CG solver: Iteration    3    eps =    0.000205487197
  CG solver: Iteration    4    eps =    0.000004075998
  CG solver: Iteration    5    eps =    0.000000645855
  CG solver: Iteration    6    eps =    0.000000030713
  CG solver: Iteration    7    eps =    0.000000000691
  Convergence reached in CG solver after    7 iterations
  CG solver: Calculating converged R, Z, Q2 matrix
----------------------------------------------------------------------------------

--------------------------------------------------
 Gradient Information
--------------------------------------------------
           1 st state (SSR)
    -0.00690321    -0.01380346     0.00036880
     0.03040278     0.00388923     0.00995390
     0.00563193     0.00212372    -0.01022113
    -0.00364449     0.00032889     0.00002128
    -0.01795017     0.00337275    -0.00017090
    -0.00753684     0.00408886     0.00004806

           2 st state (SSR)
     0.01465457    -0.00349505     0.08981401
    -0.02555927     0.01316429    -0.09951059
    -0.00782292     0.00762751     0.01053934
     0.00037474    -0.00873582    -0.00964659
     0.01219678     0.00546607    -0.00713391
     0.00615610    -0.01402700     0.01593774
--------------------------------------------------
 Coupling Information
--------------------------------------------------
 between  1 and  2 states
--------------------------------------------------
 g vector - difference gradient
    -0.01074016    -0.00501285    -0.04499696
     0.02819818    -0.00497430     0.05489077
     0.00701384    -0.00276449    -0.01036179
    -0.00174213     0.00464369     0.00491674
    -0.01549043    -0.00089524     0.00346902
    -0.00723930     0.00900318    -0.00791777

 h vector - derivative coupling
     0.00121112     0.00376072    -0.00624267
     0.00508447    -0.00863293     0.00304964
     0.00728845    -0.00027300     0.00067796
     0.00696664     0.00279613     0.00205133
    -0.01050850     0.00394199    -0.00039067
    -0.01004218    -0.00159291     0.00085442

 G vector - GDV
    -0.01077889    -0.00515420    -0.04472261
     0.02798103    -0.00463753     0.05473224
     0.00672742    -0.00275189    -0.01038023
    -0.00200961     0.00453236     0.00483393
    -0.01507347    -0.00104666     0.00348151
    -0.00684647     0.00905793    -0.00794484

 H vector - DCV - non-adiabatic coupling
     0.00320051     0.01433459    -0.03206733
     0.02480679    -0.03546297     0.02077127
     0.03037665    -0.00152595     0.00111672
     0.02772493     0.01195663     0.00900604
    -0.04463147     0.01570188    -0.00103169
    -0.04147741    -0.00500419     0.00220499
--------------------------------------------------


--------------------------------------------------------------------------------
DFTB+ running times                          cpu [s]             wall clock [s]
--------------------------------------------------------------------------------
SCC                                    +     0.02  ( 67.6%)      0.03  ( 64.1%)
Post-SCC processing                    +     0.01  ( 28.4%)      0.01  ( 28.2%)
  Force calculation                          0.01  ( 27.8%)      0.01  ( 25.6%)
--------------------------------------------------------------------------------
Missing                                +     0.00  (  4.0%)      0.00  (  7.7%)
Total                                  =     0.03  (100.0%)      0.04  (100.0%)
--------------------------------------------------------------------------------
