|===============================================================================
|
|  DFTB+ release 20.1
|
|  Copyright (C) 2006 - 2020  DFTB+ developers group
|
|===============================================================================
|
|  When publishing results obtained with DFTB+, please cite the following
|  reference:
|
|  * DFTB+, a software package for efficient approximate density functional
|    theory based atomistic simulations, J. Chem. Phys. 152, 124101 (2020).
|    [doi: 10.1063/1.5143190]
|
|  You should also cite additional publications crediting the parametrization
|  data you use. Please consult the documentation of the SK-files for the
|  references.
|
|===============================================================================

Reading input file 'dftb_in.hsd'
Parser version: 8

--------------------------------------------------------------------------------
Reading SK-files:
Done.


Processed input in HSD format written to 'dftb_pin.hsd'

Starting initialization...
--------------------------------------------------------------------------------
OpenMP threads:              1
Chosen random seed:          498894491
Mode:                        Static calculation
Self consistent charges:     Yes
SCC-tolerance:                 0.100000E-05
Max. scc iterations:                   1000
Shell resolved Hubbard:      No
Spin polarisation:           No
Nr. of up electrons:            16.000000
Nr. of down electrons:          16.000000
Periodic boundaries:         No
Electronic solver:           Relatively robust
Maximal SCC-cycles:                    1000
Initial charges:             Set automatically (system chrg:   0.100E+01)
Included shells:             C:  s, p
                             H:  s
                             N:  s, p
Spin coupling constants:     C   1(s)-1(s):  -0.455900E-01
                             C   1(s)-2(p):  -0.293000E-01
                             C   2(p)-1(s):  -0.293000E-01
                             C   2(p)-2(p):  -0.275500E-01
                             H   1(s)-1(s):  -0.792500E-01
                             N   1(s)-1(s):  -0.468700E-01
                             N   1(s)-2(p):  -0.317000E-01
                             N   2(p)-1(s):  -0.317000E-01
                             N   2(p)-2(p):  -0.307200E-01
Range separated hybrid:      Yes
  Screening parameter omega:   0.300000E+00
  Range separated algorithm:   MatrixBased
Extra options:
                             Mulliken analysis
                             Force calculation
Force type                   original
                             Eigenvector printing


REKS Calcuation:             Yes
SSR(2,2) Calcuation:         Yes
Energy Functional:           (PPS+OSS)/2
Number of Core Orbitals:                 15
Number of Active Orbitals:                2
Number of Basis:                         32
Number of States:                         2
State-Averaging Weight:          0.500000
                                 0.500000
State of Interest:                        1
Initial Guess:               Diagonalize H0 matrix
Newton-Raphson for FON opt:  Yes
NR max. Iterations:                      50
Level Shifting:              Yes
Shift Value:                     0.300000
W Scale Factor:              C  =    3.200000
                             H  =    3.200000
                             N  =    3.200000
Transition Dipole:           No
Gradient of Microstate:      No
CP-REKS Solver:              Preconditioned Conjugate-Gradient
CG max. Iterations:                     100
CG Tolerance:                  0.100000E-07
Memory for A and Hxc:        Direct Updating Without Saving
Non-Adiabatic Coupling:      Yes

--------------------------------------------------------------------------------

***  Geometry step: 0

  iSCC       reks energy        Diff energy         x_a       SCC error   
    1      -16.3658006255       0.0000000000     0.992983    1.24041039
    2      -16.3850136344      -0.0192130089     0.999112    0.05453150
    3      -16.3895837096      -0.0045700752     0.999696    0.02120738
    4      -16.3911179683      -0.0015342587     0.999834    0.01373724
    5      -16.3917501284      -0.0006321601     0.999885    0.00911611
    6      -16.3920495392      -0.0002994107     0.999909    0.00625643
    7      -16.3922078365      -0.0001582973     0.999922    0.00442142
    8      -16.3922997359      -0.0000918994     0.999930    0.00320401
    9      -16.3923576388      -0.0000579029     0.999935    0.00237480
   10      -16.3923967971      -0.0000391583     0.999938    0.00179717
   11      -16.3924248946      -0.0000280975     0.999940    0.00138624
   12      -16.3924460480      -0.0000211534     0.999942    0.00116529
   13      -16.3924625975      -0.0000165496     0.999943    0.00101651
   14      -16.3924759530      -0.0000133554     0.999944    0.00089020
   15      -16.3924870106      -0.0000110576     0.999944    0.00078232
   16      -16.3924963684      -0.0000093579     0.999945    0.00068979
   17      -16.3925044419      -0.0000080735     0.999945    0.00061016
   18      -16.3925115288      -0.0000070869     0.999946    0.00054146
   19      -16.3925178479      -0.0000063190     0.999946    0.00048205
   20      -16.3925235626      -0.0000057148     0.999947    0.00043060
   21      -16.3925287971      -0.0000052345     0.999947    0.00038597
   22      -16.3925336462      -0.0000048491     0.999947    0.00034825
   23      -16.3925381831      -0.0000045370     0.999947    0.00034405
   24      -16.3925424649      -0.0000042818     0.999948    0.00033975
   25      -16.3925465359      -0.0000040710     0.999948    0.00033539
   26      -16.3925504310      -0.0000038951     0.999948    0.00033102
   27      -16.3925541777      -0.0000037467     0.999948    0.00032666
   28      -16.3925577979      -0.0000036202     0.999948    0.00032234
   29      -16.3925613089      -0.0000035110     0.999949    0.00031807
   30      -16.3925647246      -0.0000034158     0.999949    0.00031386
   31      -16.3925680564      -0.0000033317     0.999949    0.00030973
   32      -16.3925713132      -0.0000032568     0.999949    0.00030644
   33      -16.3925745025      -0.0000031893     0.999949    0.00030373
   34      -16.3925776303      -0.0000031279     0.999950    0.00030111
   35      -16.3925807018      -0.0000030714     0.999950    0.00029857
   36      -16.3925837210      -0.0000030192     0.999950    0.00029609
   37      -16.3925866915      -0.0000029705     0.999950    0.00029368
   38      -16.3925896162      -0.0000029247     0.999950    0.00029133
   39      -16.3925924976      -0.0000028814     0.999950    0.00028902
   40      -16.3925953379      -0.0000028403     0.999951    0.00028676
   41      -16.3925981390      -0.0000028011     0.999951    0.00028454
   42      -16.3926009024      -0.0000027634     0.999951    0.00028235
   43      -16.3926036296      -0.0000027272     0.999951    0.00028020
   44      -16.3926063219      -0.0000026923     0.999951    0.00027809
   45      -16.3926089803      -0.0000026584     0.999952    0.00027600
   46      -16.3926116058      -0.0000026255     0.999952    0.00027394
   47      -16.3926141994      -0.0000025936     0.999952    0.00027191
   48      -16.3926167618      -0.0000025624     0.999952    0.00026989
   49      -16.3926192938      -0.0000025320     0.999952    0.00026791
   50      -16.3926217961      -0.0000025023     0.999952    0.00026594
   51      -16.3926242692      -0.0000024732     0.999953    0.00026400
   52      -16.3926267139      -0.0000024446     0.999953    0.00026207
   53      -16.3926291305      -0.0000024167     0.999953    0.00026016
   54      -16.3926315197      -0.0000023892     0.999953    0.00025827
   55      -16.3926338820      -0.0000023622     0.999953    0.00025640
   56      -16.3926362177      -0.0000023357     0.999954    0.00025455
   57      -16.3926385273      -0.0000023096     0.999954    0.00025271
   58      -16.3926408112      -0.0000022839     0.999954    0.00025089
   59      -16.3926430698      -0.0000022586     0.999954    0.00024908
   60      -16.3926453035      -0.0000022337     0.999954    0.00024729
   61      -16.3926475127      -0.0000022092     0.999955    0.00024551
   62      -16.3926496976      -0.0000021850     0.999955    0.00024374
   63      -16.3926518587      -0.0000021611     0.999955    0.00024199
   64      -16.3926539963      -0.0000021376     0.999955    0.00024026
   65      -16.3926561106      -0.0000021143     0.999955    0.00023853
   66      -16.3926582021      -0.0000020914     0.999956    0.00023682
   67      -16.3926602709      -0.0000020688     0.999956    0.00023513
   68      -16.3926623174      -0.0000020465     0.999956    0.00023344
   69      -16.3926643419      -0.0000020245     0.999956    0.00023177
   70      -16.3926663446      -0.0000020027     0.999956    0.00023011
   71      -16.3926683258      -0.0000019813     0.999957    0.00022958
   72      -16.3926702859      -0.0000019600     0.999957    0.00022941
   73      -16.3926722250      -0.0000019391     0.999957    0.00022921
   74      -16.3926741434      -0.0000019184     0.999957    0.00022899
   75      -16.3926760414      -0.0000018980     0.999957    0.00022875
   76      -16.3926779192      -0.0000018778     0.999958    0.00022850
   77      -16.3926797771      -0.0000018579     0.999958    0.00022822
   78      -16.3926816153      -0.0000018382     0.999958    0.00022793
   79      -16.3926834340      -0.0000018187     0.999958    0.00022761
   80      -16.3926852335      -0.0000017995     0.999958    0.00022729
   81      -16.3926870140      -0.0000017805     0.999959    0.00022694
   82      -16.3926887757      -0.0000017617     0.999959    0.00022658
   83      -16.3926905189      -0.0000017432     0.999959    0.00022621
   84      -16.3926922437      -0.0000017248     0.999959    0.00022582
   85      -16.3926939504      -0.0000017067     0.999959    0.00022542
   86      -16.3926956393      -0.0000016888     0.999960    0.00022501
   87      -16.3926973104      -0.0000016711     0.999960    0.00022458
   88      -16.3926989641      -0.0000016537     0.999960    0.00022415
   89      -16.3927006005      -0.0000016364     0.999960    0.00022370
   90      -16.3927022198      -0.0000016193     0.999960    0.00022324
   91      -16.3927038222      -0.0000016024     0.999961    0.00022277
   92      -16.3927054080      -0.0000015858     0.999961    0.00022229
   93      -16.3927069773      -0.0000015693     0.999961    0.00022180
   94      -16.3927085303      -0.0000015530     0.999961    0.00022130
   95      -16.3927100671      -0.0000015369     0.999961    0.00022079
   96      -16.3927115881      -0.0000015209     0.999962    0.00022027
   97      -16.3927130933      -0.0000015052     0.999962    0.00021975
   98      -16.3927145829      -0.0000014897     0.999962    0.00021922
   99      -16.3927160572      -0.0000014743     0.999962    0.00021868
  100      -16.3927175163      -0.0000014591     0.999962    0.00021813
  101      -16.3927189603      -0.0000014440     0.999962    0.00021757
  102      -16.3927203895      -0.0000014292     0.999963    0.00021701
  103      -16.3927218040      -0.0000014145     0.999963    0.00021644
  104      -16.3927232040      -0.0000014000     0.999963    0.00021587
  105      -16.3927245896      -0.0000013856     0.999963    0.00021529
  106      -16.3927259611      -0.0000013714     0.999963    0.00021470
  107      -16.3927273185      -0.0000013574     0.999964    0.00021411
  108      -16.3927286620      -0.0000013435     0.999964    0.00021351
  109      -16.3927299918      -0.0000013298     0.999964    0.00021291
  110      -16.3927313081      -0.0000013163     0.999964    0.00021230
  111      -16.3927326109      -0.0000013028     0.999964    0.00021169
  112      -16.3927339005      -0.0000012896     0.999965    0.00021107
  113      -16.3927351770      -0.0000012765     0.999965    0.00021045
  114      -16.3927364405      -0.0000012635     0.999965    0.00020983
  115      -16.3927376912      -0.0000012507     0.999965    0.00020920
  116      -16.3927389293      -0.0000012380     0.999965    0.00020856
  117      -16.3927401548      -0.0000012255     0.999966    0.00020792
  118      -16.3927413679      -0.0000012131     0.999966    0.00020728
  119      -16.3927425687      -0.0000012009     0.999966    0.00020664
  120      -16.3927437575      -0.0000011887     0.999966    0.00020599
  121      -16.3927449342      -0.0000011768     0.999966    0.00020534
  122      -16.3927460991      -0.0000011649     0.999967    0.00020468
  123      -16.3927472523      -0.0000011532     0.999967    0.00020403
  124      -16.3927483939      -0.0000011416     0.999967    0.00020337
  125      -16.3927495241      -0.0000011301     0.999967    0.00020271
  126      -16.3927506429      -0.0000011188     0.999967    0.00020204
  127      -16.3927517505      -0.0000011076     0.999967    0.00020137
  128      -16.3927528470      -0.0000010965     0.999968    0.00020070
  129      -16.3927539325      -0.0000010855     0.999968    0.00020003
  130      -16.3927550072      -0.0000010747     0.999968    0.00019936
  131      -16.3927560711      -0.0000010640     0.999968    0.00019868
  132      -16.3927571245      -0.0000010533     0.999968    0.00019800
  133      -16.3927581673      -0.0000010428     0.999968    0.00019732
  134      -16.3927591998      -0.0000010325     0.999969    0.00019664
  135      -16.3927602220      -0.0000010222     0.999969    0.00019596
  136      -16.3927612340      -0.0000010120     0.999969    0.00019528
  137      -16.3927622360      -0.0000010020     0.999969    0.00019459
  138      -16.3927632280      -0.0000009920     0.999969    0.00019391
  139      -16.3927642102      -0.0000009822     0.999970    0.00019322
  140      -16.3927651827      -0.0000009725     0.999970    0.00019253
  141      -16.3927661456      -0.0000009629     0.999970    0.00019184
  142      -16.3927670989      -0.0000009533     0.999970    0.00019115
  143      -16.3927680428      -0.0000009439     0.999970    0.00019046
  144      -16.3927689774      -0.0000009346     0.999970    0.00018976
  145      -16.3927699028      -0.0000009254     0.999971    0.00018907
  146      -16.3927708191      -0.0000009163     0.999971    0.00018838
  147      -16.3927717263      -0.0000009072     0.999971    0.00018768
  148      -16.3927726247      -0.0000008983     0.999971    0.00018699
  149      -16.3927735141      -0.0000008895     0.999971    0.00018629
  150      -16.3927743949      -0.0000008807     0.999971    0.00018560
  151      -16.3927752670      -0.0000008721     0.999972    0.00018490
  152      -16.3927761305      -0.0000008635     0.999972    0.00018421
  153      -16.3927769856      -0.0000008551     0.999972    0.00018351
  154      -16.3927778323      -0.0000008467     0.999972    0.00018281
  155      -16.3927786707      -0.0000008384     0.999972    0.00018212
  156      -16.3927795009      -0.0000008302     0.999972    0.00018142
  157      -16.3927803230      -0.0000008221     0.999972    0.00018073
  158      -16.3927811371      -0.0000008141     0.999973    0.00018003
  159      -16.3927819432      -0.0000008061     0.999973    0.00017933
  160      -16.3927827415      -0.0000007983     0.999973    0.00017864
  161      -16.3927835320      -0.0000007905     0.999973    0.00017794
  162      -16.3927843147      -0.0000007828     0.999973    0.00017725
  163      -16.3927850899      -0.0000007752     0.999973    0.00017655
  164      -16.3927858575      -0.0000007676     0.999974    0.00017586
  165      -16.3927866177      -0.0000007601     0.999974    0.00017517
  166      -16.3927873704      -0.0000007528     0.999974    0.00017447
  167      -16.3927881159      -0.0000007454     0.999974    0.00017378
  168      -16.3927888541      -0.0000007382     0.999974    0.00017309
  169      -16.3927895851      -0.0000007311     0.999974    0.00017240
  170      -16.3927903091      -0.0000007240     0.999974    0.00017171
  171      -16.3927910260      -0.0000007169     0.999975    0.00017102
  172      -16.3927917360      -0.0000007100     0.999975    0.00017033
  173      -16.3927924392      -0.0000007031     0.999975    0.00016964
  174      -16.3927931355      -0.0000006963     0.999975    0.00016895
  175      -16.3927938251      -0.0000006896     0.999975    0.00016827
  176      -16.3927945080      -0.0000006829     0.999975    0.00016758
  177      -16.3927951844      -0.0000006763     0.999975    0.00016690
  178      -16.3927958542      -0.0000006698     0.999976    0.00016621
  179      -16.3927965175      -0.0000006633     0.999976    0.00016553
  180      -16.3927971745      -0.0000006569     0.999976    0.00016485
  181      -16.3927978251      -0.0000006506     0.999976    0.00016417
  182      -16.3927984694      -0.0000006443     0.999976    0.00016349
  183      -16.3927991075      -0.0000006381     0.999976    0.00016281
  184      -16.3927997395      -0.0000006320     0.999976    0.00016213
  185      -16.3928003654      -0.0000006259     0.999976    0.00016146
  186      -16.3928009853      -0.0000006199     0.999977    0.00016078
  187      -16.3928015993      -0.0000006139     0.999977    0.00016011
  188      -16.3928022073      -0.0000006080     0.999977    0.00015944
  189      -16.3928028095      -0.0000006022     0.999977    0.00015877
  190      -16.3928034059      -0.0000005964     0.999977    0.00015810
  191      -16.3928039965      -0.0000005907     0.999977    0.00015743
  192      -16.3928045816      -0.0000005850     0.999977    0.00015676
  193      -16.3928051609      -0.0000005794     0.999978    0.00015610
  194      -16.3928057348      -0.0000005738     0.999978    0.00015543
  195      -16.3928063031      -0.0000005683     0.999978    0.00015477
  196      -16.3928068660      -0.0000005629     0.999978    0.00015411
  197      -16.3928074235      -0.0000005575     0.999978    0.00015345
  198      -16.3928079757      -0.0000005522     0.999978    0.00015279
  199      -16.3928085225      -0.0000005469     0.999978    0.00015214
  200      -16.3928090642      -0.0000005416     0.999978    0.00015148
  201      -16.3928096006      -0.0000005364     0.999978    0.00015083
  202      -16.3928101319      -0.0000005313     0.999979    0.00015018
  203      -16.3928106582      -0.0000005262     0.999979    0.00014953
  204      -16.3928111794      -0.0000005212     0.999979    0.00014888
  205      -16.3928116956      -0.0000005162     0.999979    0.00014823
  206      -16.3928122069      -0.0000005113     0.999979    0.00014758
  207      -16.3928127133      -0.0000005064     0.999979    0.00014694
  208      -16.3928132148      -0.0000005016     0.999979    0.00014630
  209      -16.3928137116      -0.0000004968     0.999979    0.00014566
  210      -16.3928142036      -0.0000004920     0.999980    0.00014502
  211      -16.3928146910      -0.0000004873     0.999980    0.00014438
  212      -16.3928151737      -0.0000004827     0.999980    0.00014375
  213      -16.3928156517      -0.0000004781     0.999980    0.00014311
  214      -16.3928161252      -0.0000004735     0.999980    0.00014248
  215      -16.3928165942      -0.0000004690     0.999980    0.00014185
  216      -16.3928170588      -0.0000004645     0.999980    0.00014122
  217      -16.3928175189      -0.0000004601     0.999980    0.00014060
  218      -16.3928179746      -0.0000004557     0.999980    0.00013997
  219      -16.3928184259      -0.0000004514     0.999980    0.00013935
  220      -16.3928188730      -0.0000004471     0.999981    0.00013873
  221      -16.3928193158      -0.0000004428     0.999981    0.00013811
  222      -16.3928197544      -0.0000004386     0.999981    0.00013749
  223      -16.3928201888      -0.0000004344     0.999981    0.00013688
  224      -16.3928206190      -0.0000004303     0.999981    0.00013626
  225      -16.3928210452      -0.0000004262     0.999981    0.00013565
  226      -16.3928214673      -0.0000004221     0.999981    0.00013504
  227      -16.3928218854      -0.0000004181     0.999981    0.00013443
  228      -16.3928222995      -0.0000004141     0.999981    0.00013383
  229      -16.3928227096      -0.0000004102     0.999981    0.00013322
  230      -16.3928231159      -0.0000004062     0.999982    0.00013262
  231      -16.3928235182      -0.0000004024     0.999982    0.00013202
  232      -16.3928239168      -0.0000003985     0.999982    0.00013142
  233      -16.3928243115      -0.0000003948     0.999982    0.00013082
  234      -16.3928247025      -0.0000003910     0.999982    0.00013023
  235      -16.3928250898      -0.0000003873     0.999982    0.00012963
  236      -16.3928254734      -0.0000003836     0.999982    0.00012904
  237      -16.3928258533      -0.0000003799     0.999982    0.00012845
  238      -16.3928262296      -0.0000003763     0.999982    0.00012787
  239      -16.3928266023      -0.0000003727     0.999982    0.00012728
  240      -16.3928269715      -0.0000003692     0.999983    0.00012670
  241      -16.3928273372      -0.0000003657     0.999983    0.00012612
  242      -16.3928276994      -0.0000003622     0.999983    0.00012554
  243      -16.3928280581      -0.0000003587     0.999983    0.00012496
  244      -16.3928284134      -0.0000003553     0.999983    0.00012438
  245      -16.3928287653      -0.0000003519     0.999983    0.00012381
  246      -16.3928291139      -0.0000003486     0.999983    0.00012324
  247      -16.3928294592      -0.0000003453     0.999983    0.00012267
  248      -16.3928298012      -0.0000003420     0.999983    0.00012210
  249      -16.3928301399      -0.0000003387     0.999983    0.00012154
  250      -16.3928304754      -0.0000003355     0.999983    0.00012097
  251      -16.3928308077      -0.0000003323     0.999983    0.00012041
  252      -16.3928311368      -0.0000003291     0.999984    0.00011985
  253      -16.3928314628      -0.0000003260     0.999984    0.00011929
  254      -16.3928317857      -0.0000003229     0.999984    0.00011874
  255      -16.3928321055      -0.0000003198     0.999984    0.00011818
  256      -16.3928324222      -0.0000003168     0.999984    0.00011763
  257      -16.3928327360      -0.0000003137     0.999984    0.00011708
  258      -16.3928330467      -0.0000003108     0.999984    0.00011653
  259      -16.3928333545      -0.0000003078     0.999984    0.00011599
  260      -16.3928336594      -0.0000003049     0.999984    0.00011544
  261      -16.3928339613      -0.0000003019     0.999984    0.00011490
  262      -16.3928342604      -0.0000002991     0.999984    0.00011436
  263      -16.3928345566      -0.0000002962     0.999984    0.00011382
  264      -16.3928348500      -0.0000002934     0.999985    0.00011329
  265      -16.3928351406      -0.0000002906     0.999985    0.00011275
  266      -16.3928354284      -0.0000002878     0.999985    0.00011222
  267      -16.3928357135      -0.0000002851     0.999985    0.00011169
  268      -16.3928359958      -0.0000002823     0.999985    0.00011116
  269      -16.3928362755      -0.0000002797     0.999985    0.00011064
  270      -16.3928365525      -0.0000002770     0.999985    0.00011011
  271      -16.3928368268      -0.0000002743     0.999985    0.00010959
  272      -16.3928370985      -0.0000002717     0.999985    0.00010907
  273      -16.3928373676      -0.0000002691     0.999985    0.00010855
  274      -16.3928376342      -0.0000002666     0.999985    0.00010803
  275      -16.3928378982      -0.0000002640     0.999985    0.00010752
  276      -16.3928381597      -0.0000002615     0.999985    0.00010701
  277      -16.3928384187      -0.0000002590     0.999985    0.00010650
  278      -16.3928386752      -0.0000002565     0.999986    0.00010599
  279      -16.3928389292      -0.0000002541     0.999986    0.00010548
  280      -16.3928391808      -0.0000002516     0.999986    0.00010498
  281      -16.3928394300      -0.0000002492     0.999986    0.00010448
  282      -16.3928396769      -0.0000002468     0.999986    0.00010398
  283      -16.3928399213      -0.0000002445     0.999986    0.00010348
  284      -16.3928401635      -0.0000002421     0.999986    0.00010298
  285      -16.3928404033      -0.0000002398     0.999986    0.00010249
  286      -16.3928406408      -0.0000002375     0.999986    0.00010199
  287      -16.3928408760      -0.0000002352     0.999986    0.00010150
  288      -16.3928411090      -0.0000002330     0.999986    0.00010101
  289      -16.3928413397      -0.0000002307     0.999986    0.00010053
  290      -16.3928415683      -0.0000002285     0.999986    0.00010004
  291      -16.3928417946      -0.0000002263     0.999986    0.00009956
  292      -16.3928420188      -0.0000002242     0.999986    0.00009908
  293      -16.3928422408      -0.0000002220     0.999986    0.00009860
  294      -16.3928424607      -0.0000002199     0.999987    0.00009812
  295      -16.3928426785      -0.0000002178     0.999987    0.00009765
  296      -16.3928428942      -0.0000002157     0.999987    0.00009717
  297      -16.3928431078      -0.0000002136     0.999987    0.00009670
  298      -16.3928433193      -0.0000002116     0.999987    0.00009623
  299      -16.3928435289      -0.0000002095     0.999987    0.00009576
  300      -16.3928437364      -0.0000002075     0.999987    0.00009530
  301      -16.3928439419      -0.0000002055     0.999987    0.00009484
  302      -16.3928441454      -0.0000002035     0.999987    0.00009437
  303      -16.3928443470      -0.0000002016     0.999987    0.00009391
  304      -16.3928445467      -0.0000001996     0.999987    0.00009346
  305      -16.3928447444      -0.0000001977     0.999987    0.00009300
  306      -16.3928449402      -0.0000001958     0.999987    0.00009255
  307      -16.3928451341      -0.0000001939     0.999987    0.00009209
  308      -16.3928453262      -0.0000001921     0.999987    0.00009164
  309      -16.3928455164      -0.0000001902     0.999987    0.00009119
  310      -16.3928457048      -0.0000001884     0.999987    0.00009075
  311      -16.3928458914      -0.0000001866     0.999988    0.00009030
  312      -16.3928460761      -0.0000001848     0.999988    0.00008986
  313      -16.3928462591      -0.0000001830     0.999988    0.00008942
  314      -16.3928464403      -0.0000001812     0.999988    0.00008898
  315      -16.3928466198      -0.0000001795     0.999988    0.00008854
  316      -16.3928467975      -0.0000001777     0.999988    0.00008811
  317      -16.3928469735      -0.0000001760     0.999988    0.00008767
  318      -16.3928471479      -0.0000001743     0.999988    0.00008724
  319      -16.3928473205      -0.0000001726     0.999988    0.00008681
  320      -16.3928474914      -0.0000001710     0.999988    0.00008638
  321      -16.3928476607      -0.0000001693     0.999988    0.00008596
  322      -16.3928478284      -0.0000001677     0.999988    0.00008553
  323      -16.3928479945      -0.0000001660     0.999988    0.00008511
  324      -16.3928481589      -0.0000001644     0.999988    0.00008469
  325      -16.3928483217      -0.0000001628     0.999988    0.00008427
  326      -16.3928484830      -0.0000001613     0.999988    0.00008385
  327      -16.3928486427      -0.0000001597     0.999988    0.00008344
  328      -16.3928488009      -0.0000001582     0.999988    0.00008302
  329      -16.3928489575      -0.0000001566     0.999988    0.00008261
  330      -16.3928491126      -0.0000001551     0.999988    0.00008220
  331      -16.3928492662      -0.0000001536     0.999988    0.00008179
  332      -16.3928494183      -0.0000001521     0.999989    0.00008139
  333      -16.3928495689      -0.0000001506     0.999989    0.00008098
  334      -16.3928497181      -0.0000001492     0.999989    0.00008058
  335      -16.3928498658      -0.0000001477     0.999989    0.00008018
  336      -16.3928500121      -0.0000001463     0.999989    0.00007978
  337      -16.3928501569      -0.0000001449     0.999989    0.00007938
  338      -16.3928503004      -0.0000001434     0.999989    0.00007898
  339      -16.3928504424      -0.0000001421     0.999989    0.00007859
  340      -16.3928505831      -0.0000001407     0.999989    0.00007820
  341      -16.3928507224      -0.0000001393     0.999989    0.00007781
  342      -16.3928508603      -0.0000001379     0.999989    0.00007742
  343      -16.3928509969      -0.0000001366     0.999989    0.00007703
  344      -16.3928511322      -0.0000001353     0.999989    0.00007664
  345      -16.3928512662      -0.0000001339     0.999989    0.00007626
  346      -16.3928513988      -0.0000001326     0.999989    0.00007588
  347      -16.3928515301      -0.0000001313     0.999989    0.00007550
  348      -16.3928516602      -0.0000001301     0.999989    0.00007512
  349      -16.3928517890      -0.0000001288     0.999989    0.00007474
  350      -16.3928519165      -0.0000001275     0.999989    0.00007437
  351      -16.3928520428      -0.0000001263     0.999989    0.00007399
  352      -16.3928521679      -0.0000001251     0.999989    0.00007362
  353      -16.3928522917      -0.0000001238     0.999989    0.00007325
  354      -16.3928524143      -0.0000001226     0.999989    0.00007288
  355      -16.3928525357      -0.0000001214     0.999990    0.00007252
  356      -16.3928526560      -0.0000001202     0.999990    0.00007215
  357      -16.3928527750      -0.0000001191     0.999990    0.00007179
  358      -16.3928528929      -0.0000001179     0.999990    0.00007142
  359      -16.3928530096      -0.0000001167     0.999990    0.00007106
  360      -16.3928531252      -0.0000001156     0.999990    0.00007070
  361      -16.3928532397      -0.0000001145     0.999990    0.00007035
  362      -16.3928533530      -0.0000001133     0.999990    0.00006999
  363      -16.3928534652      -0.0000001122     0.999990    0.00006964
  364      -16.3928535763      -0.0000001111     0.999990    0.00006929
  365      -16.3928536864      -0.0000001100     0.999990    0.00006894
  366      -16.3928537953      -0.0000001089     0.999990    0.00006859
  367      -16.3928539032      -0.0000001079     0.999990    0.00006824
  368      -16.3928540100      -0.0000001068     0.999990    0.00006789
  369      -16.3928541157      -0.0000001058     0.999990    0.00006755
  370      -16.3928542205      -0.0000001047     0.999990    0.00006721
  371      -16.3928543242      -0.0000001037     0.999990    0.00006686
  372      -16.3928544268      -0.0000001027     0.999990    0.00006653
  373      -16.3928545285      -0.0000001017     0.999990    0.00006619
  374      -16.3928546291      -0.0000001007     0.999990    0.00006585
  375      -16.3928547288      -0.0000000997     0.999990    0.00006552
  376      -16.3928548275      -0.0000000987     0.999990    0.00006518
  377      -16.3928549252      -0.0000000977     0.999990    0.00006485
  378      -16.3928550219      -0.0000000967     0.999990    0.00006452
  379      -16.3928551177      -0.0000000958     0.999990    0.00006419
  380      -16.3928552125      -0.0000000948     0.999990    0.00006386
  381      -16.3928553064      -0.0000000939     0.999990    0.00006354
  382      -16.3928553994      -0.0000000930     0.999990    0.00006321
  383      -16.3928554915      -0.0000000921     0.999990    0.00006289
  384      -16.3928555826      -0.0000000911     0.999991    0.00006257
  385      -16.3928556729      -0.0000000902     0.999991    0.00006225
  386      -16.3928557622      -0.0000000893     0.999991    0.00006193
  387      -16.3928558507      -0.0000000885     0.999991    0.00006162
  388      -16.3928559383      -0.0000000876     0.999991    0.00006130
  389      -16.3928560250      -0.0000000867     0.999991    0.00006099
  390      -16.3928561108      -0.0000000859     0.999991    0.00006067
  391      -16.3928561959      -0.0000000850     0.999991    0.00006036
  392      -16.3928562800      -0.0000000842     0.999991    0.00006005
  393      -16.3928563634      -0.0000000833     0.999991    0.00005975
  394      -16.3928564459      -0.0000000825     0.999991    0.00005944
  395      -16.3928565275      -0.0000000817     0.999991    0.00005914
  396      -16.3928566084      -0.0000000809     0.999991    0.00005883
  397      -16.3928566885      -0.0000000801     0.999991    0.00005853
  398      -16.3928567678      -0.0000000793     0.999991    0.00005823
  399      -16.3928568462      -0.0000000785     0.999991    0.00005793
  400      -16.3928569239      -0.0000000777     0.999991    0.00005763
  401      -16.3928570009      -0.0000000769     0.999991    0.00005734
  402      -16.3928570770      -0.0000000762     0.999991    0.00005704
  403      -16.3928571524      -0.0000000754     0.999991    0.00005675
  404      -16.3928572271      -0.0000000747     0.999991    0.00005646
  405      -16.3928573010      -0.0000000739     0.999991    0.00005616
  406      -16.3928573742      -0.0000000732     0.999991    0.00005587
  407      -16.3928574466      -0.0000000724     0.999991    0.00005559
  408      -16.3928575183      -0.0000000717     0.999991    0.00005530
  409      -16.3928575893      -0.0000000710     0.999991    0.00005501
  410      -16.3928576596      -0.0000000703     0.999991    0.00005473
  411      -16.3928577292      -0.0000000696     0.999991    0.00005445
  412      -16.3928577981      -0.0000000689     0.999991    0.00005417
  413      -16.3928578663      -0.0000000682     0.999991    0.00005389
  414      -16.3928579339      -0.0000000675     0.999991    0.00005361
  415      -16.3928580007      -0.0000000669     0.999991    0.00005333
  416      -16.3928580669      -0.0000000662     0.999991    0.00005306
  417      -16.3928581324      -0.0000000655     0.999991    0.00005278
  418      -16.3928581973      -0.0000000649     0.999991    0.00005251
  419      -16.3928582615      -0.0000000642     0.999991    0.00005224
  420      -16.3928583251      -0.0000000636     0.999992    0.00005197
  421      -16.3928583880      -0.0000000629     0.999992    0.00005170
  422      -16.3928584503      -0.0000000623     0.999992    0.00005143
  423      -16.3928585120      -0.0000000617     0.999992    0.00005116
  424      -16.3928585730      -0.0000000611     0.999992    0.00005090
  425      -16.3928586335      -0.0000000604     0.999992    0.00005063
  426      -16.3928586933      -0.0000000598     0.999992    0.00005037
  427      -16.3928587525      -0.0000000592     0.999992    0.00005011
  428      -16.3928588112      -0.0000000586     0.999992    0.00004985
  429      -16.3928588692      -0.0000000581     0.999992    0.00004959
  430      -16.3928589267      -0.0000000575     0.999992    0.00004933
  431      -16.3928589836      -0.0000000569     0.999992    0.00004908
  432      -16.3928590399      -0.0000000563     0.999992    0.00004882
  433      -16.3928590956      -0.0000000557     0.999992    0.00004857
  434      -16.3928591508      -0.0000000552     0.999992    0.00004831
  435      -16.3928592055      -0.0000000546     0.999992    0.00004806
  436      -16.3928592595      -0.0000000541     0.999992    0.00004781
  437      -16.3928593131      -0.0000000535     0.999992    0.00004756
  438      -16.3928593661      -0.0000000530     0.999992    0.00004731
  439      -16.3928594185      -0.0000000525     0.999992    0.00004707
  440      -16.3928594705      -0.0000000519     0.999992    0.00004682
  441      -16.3928595219      -0.0000000514     0.999992    0.00004658
  442      -16.3928595728      -0.0000000509     0.999992    0.00004634
  443      -16.3928596231      -0.0000000504     0.999992    0.00004609
  444      -16.3928596730      -0.0000000499     0.999992    0.00004585
  445      -16.3928597224      -0.0000000494     0.999992    0.00004561
  446      -16.3928597712      -0.0000000489     0.999992    0.00004538
  447      -16.3928598196      -0.0000000484     0.999992    0.00004514
  448      -16.3928598675      -0.0000000479     0.999992    0.00004490
  449      -16.3928599149      -0.0000000474     0.999992    0.00004467
  450      -16.3928599618      -0.0000000469     0.999992    0.00004443
  451      -16.3928600082      -0.0000000464     0.999992    0.00004420
  452      -16.3928600542      -0.0000000460     0.999992    0.00004397
  453      -16.3928600997      -0.0000000455     0.999992    0.00004374
  454      -16.3928601447      -0.0000000450     0.999992    0.00004351
  455      -16.3928601893      -0.0000000446     0.999992    0.00004328
  456      -16.3928602334      -0.0000000441     0.999992    0.00004306
  457      -16.3928602771      -0.0000000437     0.999992    0.00004283
  458      -16.3928603204      -0.0000000432     0.999992    0.00004261
  459      -16.3928603632      -0.0000000428     0.999992    0.00004238
  460      -16.3928604055      -0.0000000424     0.999992    0.00004216
  461      -16.3928604475      -0.0000000419     0.999992    0.00004194
  462      -16.3928604890      -0.0000000415     0.999992    0.00004172
  463      -16.3928605301      -0.0000000411     0.999992    0.00004150
  464      -16.3928605707      -0.0000000407     0.999992    0.00004128
  465      -16.3928606110      -0.0000000403     0.999992    0.00004107
  466      -16.3928606508      -0.0000000398     0.999992    0.00004085
  467      -16.3928606903      -0.0000000394     0.999992    0.00004064
  468      -16.3928607293      -0.0000000390     0.999993    0.00004042
  469      -16.3928607679      -0.0000000386     0.999993    0.00004021
  470      -16.3928608062      -0.0000000382     0.999993    0.00004000
  471      -16.3928608440      -0.0000000379     0.999993    0.00003979
  472      -16.3928608815      -0.0000000375     0.999993    0.00003958
  473      -16.3928609186      -0.0000000371     0.999993    0.00003937
  474      -16.3928609553      -0.0000000367     0.999993    0.00003916
  475      -16.3928609916      -0.0000000363     0.999993    0.00003896
  476      -16.3928610276      -0.0000000360     0.999993    0.00003875
  477      -16.3928610632      -0.0000000356     0.999993    0.00003855
  478      -16.3928610984      -0.0000000352     0.999993    0.00003835
  479      -16.3928611333      -0.0000000349     0.999993    0.00003814
  480      -16.3928611678      -0.0000000345     0.999993    0.00003794
  481      -16.3928612020      -0.0000000342     0.999993    0.00003774
  482      -16.3928612358      -0.0000000338     0.999993    0.00003754
  483      -16.3928612693      -0.0000000335     0.999993    0.00003735
  484      -16.3928613024      -0.0000000331     0.999993    0.00003715
  485      -16.3928613352      -0.0000000328     0.999993    0.00003695
  486      -16.3928613676      -0.0000000324     0.999993    0.00003676
  487      -16.3928613997      -0.0000000321     0.999993    0.00003656
  488      -16.3928614315      -0.0000000318     0.999993    0.00003637
  489      -16.3928614630      -0.0000000315     0.999993    0.00003618
  490      -16.3928614941      -0.0000000311     0.999993    0.00003599
  491      -16.3928615249      -0.0000000308     0.999993    0.00003580
  492      -16.3928615554      -0.0000000305     0.999993    0.00003561
  493      -16.3928615856      -0.0000000302     0.999993    0.00003542
  494      -16.3928616155      -0.0000000299     0.999993    0.00003523
  495      -16.3928616451      -0.0000000296     0.999993    0.00003505
  496      -16.3928616744      -0.0000000293     0.999993    0.00003486
  497      -16.3928617033      -0.0000000290     0.999993    0.00003468
  498      -16.3928617320      -0.0000000287     0.999993    0.00003449
  499      -16.3928617604      -0.0000000284     0.999993    0.00003431
  500      -16.3928617885      -0.0000000281     0.999993    0.00003413
  501      -16.3928618163      -0.0000000278     0.999993    0.00003395
  502      -16.3928618438      -0.0000000275     0.999993    0.00003377
  503      -16.3928618710      -0.0000000272     0.999993    0.00003359
  504      -16.3928618979      -0.0000000269     0.999993    0.00003341
  505      -16.3928619246      -0.0000000267     0.999993    0.00003323
  506      -16.3928619510      -0.0000000264     0.999993    0.00003306
  507      -16.3928619771      -0.0000000261     0.999993    0.00003288
  508      -16.3928620030      -0.0000000259     0.999993    0.00003271
  509      -16.3928620286      -0.0000000256     0.999993    0.00003253
  510      -16.3928620539      -0.0000000253     0.999993    0.00003236
  511      -16.3928620789      -0.0000000251     0.999993    0.00003219
  512      -16.3928621037      -0.0000000248     0.999993    0.00003202
  513      -16.3928621283      -0.0000000245     0.999993    0.00003185
  514      -16.3928621526      -0.0000000243     0.999993    0.00003168
  515      -16.3928621766      -0.0000000240     0.999993    0.00003151
  516      -16.3928622004      -0.0000000238     0.999993    0.00003134
  517      -16.3928622240      -0.0000000235     0.999993    0.00003118
  518      -16.3928622473      -0.0000000233     0.999993    0.00003101
  519      -16.3928622703      -0.0000000231     0.999993    0.00003085
  520      -16.3928622932      -0.0000000228     0.999993    0.00003068
  521      -16.3928623157      -0.0000000226     0.999993    0.00003052
  522      -16.3928623381      -0.0000000224     0.999993    0.00003036
  523      -16.3928623602      -0.0000000221     0.999993    0.00003020
  524      -16.3928623821      -0.0000000219     0.999993    0.00003004
  525      -16.3928624038      -0.0000000217     0.999993    0.00002988
  526      -16.3928624252      -0.0000000214     0.999993    0.00002972
  527      -16.3928624464      -0.0000000212     0.999993    0.00002956
  528      -16.3928624674      -0.0000000210     0.999993    0.00002940
  529      -16.3928624882      -0.0000000208     0.999993    0.00002925
  530      -16.3928625088      -0.0000000206     0.999993    0.00002909
  531      -16.3928625292      -0.0000000204     0.999993    0.00002893
  532      -16.3928625493      -0.0000000201     0.999993    0.00002878
  533      -16.3928625692      -0.0000000199     0.999993    0.00002863
  534      -16.3928625890      -0.0000000197     0.999993    0.00002847
  535      -16.3928626085      -0.0000000195     0.999993    0.00002832
  536      -16.3928626278      -0.0000000193     0.999993    0.00002817
  537      -16.3928626469      -0.0000000191     0.999993    0.00002802
  538      -16.3928626658      -0.0000000189     0.999993    0.00002787
  539      -16.3928626846      -0.0000000187     0.999993    0.00002772
  540      -16.3928627031      -0.0000000185     0.999993    0.00002758
  541      -16.3928627214      -0.0000000183     0.999994    0.00002743
  542      -16.3928627396      -0.0000000181     0.999994    0.00002728
  543      -16.3928627575      -0.0000000180     0.999994    0.00002714
  544      -16.3928627753      -0.0000000178     0.999994    0.00002699
  545      -16.3928627929      -0.0000000176     0.999994    0.00002685
  546      -16.3928628103      -0.0000000174     0.999994    0.00002670
  547      -16.3928628275      -0.0000000172     0.999994    0.00002656
  548      -16.3928628445      -0.0000000170     0.999994    0.00002642
  549      -16.3928628614      -0.0000000169     0.999994    0.00002628
  550      -16.3928628781      -0.0000000167     0.999994    0.00002614
  551      -16.3928628946      -0.0000000165     0.999994    0.00002600
  552      -16.3928629110      -0.0000000163     0.999994    0.00002586
  553      -16.3928629271      -0.0000000162     0.999994    0.00002572
  554      -16.3928629431      -0.0000000160     0.999994    0.00002558
  555      -16.3928629590      -0.0000000158     0.999994    0.00002545
  556      -16.3928629746      -0.0000000157     0.999994    0.00002531
  557      -16.3928629901      -0.0000000155     0.999994    0.00002518
  558      -16.3928630055      -0.0000000153     0.999994    0.00002504
  559      -16.3928630207      -0.0000000152     0.999994    0.00002491
  560      -16.3928630357      -0.0000000150     0.999994    0.00002477
  561      -16.3928630506      -0.0000000149     0.999994    0.00002464
  562      -16.3928630653      -0.0000000147     0.999994    0.00002451
  563      -16.3928630798      -0.0000000146     0.999994    0.00002438
  564      -16.3928630943      -0.0000000144     0.999994    0.00002425
  565      -16.3928631085      -0.0000000143     0.999994    0.00002412
  566      -16.3928631226      -0.0000000141     0.999994    0.00002399
  567      -16.3928631366      -0.0000000140     0.999994    0.00002386
  568      -16.3928631504      -0.0000000138     0.999994    0.00002373
  569      -16.3928631641      -0.0000000137     0.999994    0.00002360
  570      -16.3928631776      -0.0000000135     0.999994    0.00002348
  571      -16.3928631910      -0.0000000134     0.999994    0.00002335
  572      -16.3928632042      -0.0000000132     0.999994    0.00002323
  573      -16.3928632173      -0.0000000131     0.999994    0.00002310
  574      -16.3928632303      -0.0000000130     0.999994    0.00002298
  575      -16.3928632431      -0.0000000128     0.999994    0.00002286
  576      -16.3928632558      -0.0000000127     0.999994    0.00002273
  577      -16.3928632684      -0.0000000126     0.999994    0.00002261
  578      -16.3928632808      -0.0000000124     0.999994    0.00002249
  579      -16.3928632931      -0.0000000123     0.999994    0.00002237
  580      -16.3928633053      -0.0000000122     0.999994    0.00002225
  581      -16.3928633174      -0.0000000120     0.999994    0.00002213
  582      -16.3928633293      -0.0000000119     0.999994    0.00002201
  583      -16.3928633411      -0.0000000118     0.999994    0.00002189
  584      -16.3928633527      -0.0000000117     0.999994    0.00002178
  585      -16.3928633643      -0.0000000115     0.999994    0.00002166
  586      -16.3928633757      -0.0000000114     0.999994    0.00002154
  587      -16.3928633870      -0.0000000113     0.999994    0.00002143
  588      -16.3928633982      -0.0000000112     0.999994    0.00002131
  589      -16.3928634093      -0.0000000111     0.999994    0.00002120
  590      -16.3928634202      -0.0000000110     0.999994    0.00002108
  591      -16.3928634311      -0.0000000108     0.999994    0.00002097
  592      -16.3928634418      -0.0000000107     0.999994    0.00002086
  593      -16.3928634524      -0.0000000106     0.999994    0.00002075
  594      -16.3928634629      -0.0000000105     0.999994    0.00002063
  595      -16.3928634733      -0.0000000104     0.999994    0.00002052
  596      -16.3928634836      -0.0000000103     0.999994    0.00002041
  597      -16.3928634938      -0.0000000102     0.999994    0.00002030
  598      -16.3928635038      -0.0000000101     0.999994    0.00002019
  599      -16.3928635138      -0.0000000100     0.999994    0.00002008
  600      -16.3928635236      -0.0000000099     0.999994    0.00001998
  601      -16.3928635334      -0.0000000098     0.999994    0.00001987
  602      -16.3928635430      -0.0000000096     0.999994    0.00001976
  603      -16.3928635526      -0.0000000095     0.999994    0.00001966
  604      -16.3928635620      -0.0000000094     0.999994    0.00001955
  605      -16.3928635714      -0.0000000093     0.999994    0.00001945
  606      -16.3928635806      -0.0000000092     0.999994    0.00001934
  607      -16.3928635898      -0.0000000092     0.999994    0.00001924
  608      -16.3928635988      -0.0000000091     0.999994    0.00001913
  609      -16.3928636078      -0.0000000090     0.999994    0.00001903
  610      -16.3928636166      -0.0000000089     0.999994    0.00001893
  611      -16.3928636254      -0.0000000088     0.999994    0.00001883
  612      -16.3928636341      -0.0000000087     0.999994    0.00001872
  613      -16.3928636427      -0.0000000086     0.999994    0.00001862
  614      -16.3928636512      -0.0000000085     0.999994    0.00001852
  615      -16.3928636596      -0.0000000084     0.999994    0.00001842
  616      -16.3928636679      -0.0000000083     0.999994    0.00001832
  617      -16.3928636761      -0.0000000082     0.999994    0.00001822
  618      -16.3928636843      -0.0000000081     0.999994    0.00001813
  619      -16.3928636923      -0.0000000081     0.999994    0.00001803
  620      -16.3928637003      -0.0000000080     0.999994    0.00001793
  621      -16.3928637082      -0.0000000079     0.999994    0.00001784
  622      -16.3928637160      -0.0000000078     0.999994    0.00001774
  623      -16.3928637237      -0.0000000077     0.999994    0.00001764
  624      -16.3928637313      -0.0000000076     0.999994    0.00001755
  625      -16.3928637389      -0.0000000076     0.999994    0.00001745
  626      -16.3928637464      -0.0000000075     0.999994    0.00001736
  627      -16.3928637538      -0.0000000074     0.999994    0.00001727
  628      -16.3928637611      -0.0000000073     0.999994    0.00001717
  629      -16.3928637683      -0.0000000072     0.999994    0.00001708
  630      -16.3928637755      -0.0000000072     0.999994    0.00001699
  631      -16.3928637826      -0.0000000071     0.999994    0.00001690
  632      -16.3928637896      -0.0000000070     0.999994    0.00001680
  633      -16.3928637966      -0.0000000069     0.999994    0.00001671
  634      -16.3928638034      -0.0000000069     0.999994    0.00001662
  635      -16.3928638102      -0.0000000068     0.999994    0.00001653
  636      -16.3928638169      -0.0000000067     0.999994    0.00001645
  637      -16.3928638236      -0.0000000067     0.999994    0.00001636
  638      -16.3928638302      -0.0000000066     0.999994    0.00001627
  639      -16.3928638367      -0.0000000065     0.999994    0.00001618
  640      -16.3928638431      -0.0000000064     0.999994    0.00001609
  641      -16.3928638495      -0.0000000064     0.999994    0.00001601
  642      -16.3928638558      -0.0000000063     0.999994    0.00001592
  643      -16.3928638620      -0.0000000062     0.999994    0.00001583
  644      -16.3928638682      -0.0000000062     0.999994    0.00001575
  645      -16.3928638743      -0.0000000061     0.999994    0.00001566
  646      -16.3928638804      -0.0000000060     0.999994    0.00001558
  647      -16.3928638863      -0.0000000060     0.999994    0.00001549
  648      -16.3928638923      -0.0000000059     0.999994    0.00001541
  649      -16.3928638981      -0.0000000059     0.999994    0.00001533
  650      -16.3928639039      -0.0000000058     0.999994    0.00001524
  651      -16.3928639096      -0.0000000057     0.999994    0.00001516
  652      -16.3928639153      -0.0000000057     0.999994    0.00001508
  653      -16.3928639209      -0.0000000056     0.999994    0.00001500
  654      -16.3928639265      -0.0000000055     0.999994    0.00001492
  655      -16.3928639319      -0.0000000055     0.999994    0.00001484
  656      -16.3928639374      -0.0000000054     0.999994    0.00001476
  657      -16.3928639427      -0.0000000054     0.999994    0.00001468
  658      -16.3928639481      -0.0000000053     0.999994    0.00001460
  659      -16.3928639533      -0.0000000053     0.999994    0.00001452
  660      -16.3928639585      -0.0000000052     0.999994    0.00001444
  661      -16.3928639637      -0.0000000051     0.999994    0.00001436
  662      -16.3928639688      -0.0000000051     0.999994    0.00001428
  663      -16.3928639738      -0.0000000050     0.999994    0.00001421
  664      -16.3928639788      -0.0000000050     0.999994    0.00001413
  665      -16.3928639837      -0.0000000049     0.999994    0.00001405
  666      -16.3928639886      -0.0000000049     0.999994    0.00001398
  667      -16.3928639934      -0.0000000048     0.999994    0.00001390
  668      -16.3928639982      -0.0000000048     0.999994    0.00001383
  669      -16.3928640029      -0.0000000047     0.999994    0.00001375
  670      -16.3928640076      -0.0000000047     0.999994    0.00001368
  671      -16.3928640122      -0.0000000046     0.999994    0.00001360
  672      -16.3928640168      -0.0000000046     0.999994    0.00001353
  673      -16.3928640213      -0.0000000045     0.999994    0.00001346
  674      -16.3928640258      -0.0000000045     0.999994    0.00001338
  675      -16.3928640302      -0.0000000044     0.999994    0.00001331
  676      -16.3928640346      -0.0000000044     0.999994    0.00001324
  677      -16.3928640390      -0.0000000043     0.999994    0.00001317
  678      -16.3928640433      -0.0000000043     0.999994    0.00001310
  679      -16.3928640475      -0.0000000042     0.999994    0.00001302
  680      -16.3928640517      -0.0000000042     0.999995    0.00001295
  681      -16.3928640559      -0.0000000042     0.999995    0.00001288
  682      -16.3928640600      -0.0000000041     0.999995    0.00001281
  683      -16.3928640640      -0.0000000041     0.999995    0.00001274
  684      -16.3928640681      -0.0000000040     0.999995    0.00001268
  685      -16.3928640720      -0.0000000040     0.999995    0.00001261
  686      -16.3928640760      -0.0000000039     0.999995    0.00001254
  687      -16.3928640799      -0.0000000039     0.999995    0.00001247
  688      -16.3928640837      -0.0000000039     0.999995    0.00001240
  689      -16.3928640875      -0.0000000038     0.999995    0.00001234
  690      -16.3928640913      -0.0000000038     0.999995    0.00001227
  691      -16.3928640950      -0.0000000037     0.999995    0.00001220
  692      -16.3928640987      -0.0000000037     0.999995    0.00001214
  693      -16.3928641024      -0.0000000037     0.999995    0.00001207
  694      -16.3928641060      -0.0000000036     0.999995    0.00001200
  695      -16.3928641096      -0.0000000036     0.999995    0.00001194
  696      -16.3928641131      -0.0000000035     0.999995    0.00001187
  697      -16.3928641166      -0.0000000035     0.999995    0.00001181
  698      -16.3928641201      -0.0000000035     0.999995    0.00001175
  699      -16.3928641235      -0.0000000034     0.999995    0.00001168
  700      -16.3928641269      -0.0000000034     0.999995    0.00001162
  701      -16.3928641302      -0.0000000034     0.999995    0.00001156
  702      -16.3928641335      -0.0000000033     0.999995    0.00001149
  703      -16.3928641368      -0.0000000033     0.999995    0.00001143
  704      -16.3928641401      -0.0000000032     0.999995    0.00001137
  705      -16.3928641433      -0.0000000032     0.999995    0.00001131
  706      -16.3928641465      -0.0000000032     0.999995    0.00001125
  707      -16.3928641496      -0.0000000031     0.999995    0.00001118
  708      -16.3928641527      -0.0000000031     0.999995    0.00001112
  709      -16.3928641558      -0.0000000031     0.999995    0.00001106
  710      -16.3928641588      -0.0000000030     0.999995    0.00001100
  711      -16.3928641618      -0.0000000030     0.999995    0.00001094
  712      -16.3928641648      -0.0000000030     0.999995    0.00001088
  713      -16.3928641678      -0.0000000029     0.999995    0.00001083
  714      -16.3928641707      -0.0000000029     0.999995    0.00001077
  715      -16.3928641736      -0.0000000029     0.999995    0.00001071
  716      -16.3928641764      -0.0000000029     0.999995    0.00001065
  717      -16.3928641792      -0.0000000028     0.999995    0.00001059
  718      -16.3928641820      -0.0000000028     0.999995    0.00001053
  719      -16.3928641848      -0.0000000028     0.999995    0.00001048
  720      -16.3928641875      -0.0000000027     0.999995    0.00001042
  721      -16.3928641902      -0.0000000027     0.999995    0.00001036
  722      -16.3928641929      -0.0000000027     0.999995    0.00001031
  723      -16.3928641955      -0.0000000026     0.999995    0.00001025
  724      -16.3928641982      -0.0000000026     0.999995    0.00001020
  725      -16.3928642007      -0.0000000026     0.999995    0.00001014
  726      -16.3928642033      -0.0000000026     0.999995    0.00001009
  727      -16.3928642058      -0.0000000025     0.999995    0.00001003
  728      -16.3928642083      -0.0000000025     0.999995    0.00000998
  729      -16.3928642108      -0.0000000025     0.999995    0.00000992
  730      -16.3928642133      -0.0000000025     0.999995    0.00000987
  731      -16.3928642157      -0.0000000024     0.999995    0.00000981
  732      -16.3928642181      -0.0000000024     0.999995    0.00000976
  733      -16.3928642205      -0.0000000024     0.999995    0.00000971
  734      -16.3928642228      -0.0000000023     0.999995    0.00000966
  735      -16.3928642251      -0.0000000023     0.999995    0.00000960
  736      -16.3928642274      -0.0000000023     0.999995    0.00000955
  737      -16.3928642297      -0.0000000023     0.999995    0.00000950
  738      -16.3928642320      -0.0000000022     0.999995    0.00000945
  739      -16.3928642342      -0.0000000022     0.999995    0.00000940
  740      -16.3928642364      -0.0000000022     0.999995    0.00000934
  741      -16.3928642386      -0.0000000022     0.999995    0.00000929
  742      -16.3928642407      -0.0000000022     0.999995    0.00000924
  743      -16.3928642429      -0.0000000021     0.999995    0.00000919
  744      -16.3928642450      -0.0000000021     0.999995    0.00000914
  745      -16.3928642471      -0.0000000021     0.999995    0.00000909
  746      -16.3928642491      -0.0000000021     0.999995    0.00000904
  747      -16.3928642512      -0.0000000020     0.999995    0.00000899
  748      -16.3928642532      -0.0000000020     0.999995    0.00000895
  749      -16.3928642552      -0.0000000020     0.999995    0.00000890
  750      -16.3928642572      -0.0000000020     0.999995    0.00000885
  751      -16.3928642591      -0.0000000020     0.999995    0.00000880
  752      -16.3928642610      -0.0000000019     0.999995    0.00000875
  753      -16.3928642630      -0.0000000019     0.999995    0.00000870
  754      -16.3928642648      -0.0000000019     0.999995    0.00000866
  755      -16.3928642667      -0.0000000019     0.999995    0.00000861
  756      -16.3928642686      -0.0000000019     0.999995    0.00000856
  757      -16.3928642704      -0.0000000018     0.999995    0.00000852
  758      -16.3928642722      -0.0000000018     0.999995    0.00000847
  759      -16.3928642740      -0.0000000018     0.999995    0.00000842
  760      -16.3928642758      -0.0000000018     0.999995    0.00000838
  761      -16.3928642775      -0.0000000018     0.999995    0.00000833
  762      -16.3928642793      -0.0000000017     0.999995    0.00000829
  763      -16.3928642810      -0.0000000017     0.999995    0.00000824
  764      -16.3928642827      -0.0000000017     0.999995    0.00000820
  765      -16.3928642844      -0.0000000017     0.999995    0.00000815
  766      -16.3928642860      -0.0000000017     0.999995    0.00000811
  767      -16.3928642877      -0.0000000016     0.999995    0.00000806
  768      -16.3928642893      -0.0000000016     0.999995    0.00000802
  769      -16.3928642909      -0.0000000016     0.999995    0.00000798
  770      -16.3928642925      -0.0000000016     0.999995    0.00000793
  771      -16.3928642941      -0.0000000016     0.999995    0.00000789
  772      -16.3928642956      -0.0000000016     0.999995    0.00000785
  773      -16.3928642972      -0.0000000015     0.999995    0.00000780
  774      -16.3928642987      -0.0000000015     0.999995    0.00000776
  775      -16.3928643002      -0.0000000015     0.999995    0.00000772
  776      -16.3928643017      -0.0000000015     0.999995    0.00000768
  777      -16.3928643032      -0.0000000015     0.999995    0.00000764
  778      -16.3928643046      -0.0000000015     0.999995    0.00000759
  779      -16.3928643061      -0.0000000014     0.999995    0.00000755
  780      -16.3928643075      -0.0000000014     0.999995    0.00000751
  781      -16.3928643089      -0.0000000014     0.999995    0.00000747
  782      -16.3928643103      -0.0000000014     0.999995    0.00000743
  783      -16.3928643117      -0.0000000014     0.999995    0.00000739
  784      -16.3928643131      -0.0000000014     0.999995    0.00000735
  785      -16.3928643144      -0.0000000014     0.999995    0.00000731
  786      -16.3928643158      -0.0000000013     0.999995    0.00000727
  787      -16.3928643171      -0.0000000013     0.999995    0.00000723
  788      -16.3928643184      -0.0000000013     0.999995    0.00000719
  789      -16.3928643197      -0.0000000013     0.999995    0.00000715
  790      -16.3928643210      -0.0000000013     0.999995    0.00000711
  791      -16.3928643222      -0.0000000013     0.999995    0.00000707
  792      -16.3928643235      -0.0000000013     0.999995    0.00000704
  793      -16.3928643247      -0.0000000012     0.999995    0.00000700
  794      -16.3928643260      -0.0000000012     0.999995    0.00000696
  795      -16.3928643272      -0.0000000012     0.999995    0.00000692
  796      -16.3928643284      -0.0000000012     0.999995    0.00000688
  797      -16.3928643296      -0.0000000012     0.999995    0.00000685
  798      -16.3928643307      -0.0000000012     0.999995    0.00000681
  799      -16.3928643319      -0.0000000012     0.999995    0.00000677
  800      -16.3928643330      -0.0000000011     0.999995    0.00000673
  801      -16.3928643342      -0.0000000011     0.999995    0.00000670
  802      -16.3928643353      -0.0000000011     0.999995    0.00000666
  803      -16.3928643364      -0.0000000011     0.999995    0.00000662
  804      -16.3928643375      -0.0000000011     0.999995    0.00000659
  805      -16.3928643386      -0.0000000011     0.999995    0.00000655
  806      -16.3928643397      -0.0000000011     0.999995    0.00000652
  807      -16.3928643408      -0.0000000011     0.999995    0.00000648
  808      -16.3928643418      -0.0000000011     0.999995    0.00000645
  809      -16.3928643428      -0.0000000010     0.999995    0.00000641
  810      -16.3928643439      -0.0000000010     0.999995    0.00000638
  811      -16.3928643449      -0.0000000010     0.999995    0.00000634
  812      -16.3928643459      -0.0000000010     0.999995    0.00000631
  813      -16.3928643469      -0.0000000010     0.999995    0.00000627
  814      -16.3928643479      -0.0000000010     0.999995    0.00000624
  815      -16.3928643489      -0.0000000010     0.999995    0.00000620
  816      -16.3928643498      -0.0000000010     0.999995    0.00000617
  817      -16.3928643508      -0.0000000010     0.999995    0.00000614
  818      -16.3928643517      -0.0000000009     0.999995    0.00000610
  819      -16.3928643527      -0.0000000009     0.999995    0.00000607
  820      -16.3928643536      -0.0000000009     0.999995    0.00000604
  821      -16.3928643545      -0.0000000009     0.999995    0.00000600
  822      -16.3928643554      -0.0000000009     0.999995    0.00000597
  823      -16.3928643563      -0.0000000009     0.999995    0.00000594
  824      -16.3928643572      -0.0000000009     0.999995    0.00000591
  825      -16.3928643581      -0.0000000009     0.999995    0.00000587
  826      -16.3928643589      -0.0000000009     0.999995    0.00000584
  827      -16.3928643598      -0.0000000009     0.999995    0.00000581
  828      -16.3928643607      -0.0000000008     0.999995    0.00000578
  829      -16.3928643615      -0.0000000008     0.999995    0.00000575
  830      -16.3928643623      -0.0000000008     0.999995    0.00000572
  831      -16.3928643631      -0.0000000008     0.999995    0.00000568
  832      -16.3928643640      -0.0000000008     0.999995    0.00000565
  833      -16.3928643648      -0.0000000008     0.999995    0.00000562
  834      -16.3928643655      -0.0000000008     0.999995    0.00000559
  835      -16.3928643663      -0.0000000008     0.999995    0.00000556
  836      -16.3928643671      -0.0000000008     0.999995    0.00000553
  837      -16.3928643679      -0.0000000008     0.999995    0.00000550
  838      -16.3928643686      -0.0000000008     0.999995    0.00000547
  839      -16.3928643694      -0.0000000008     0.999995    0.00000544
  840      -16.3928643701      -0.0000000007     0.999995    0.00000541
  841      -16.3928643709      -0.0000000007     0.999995    0.00000538
  842      -16.3928643716      -0.0000000007     0.999995    0.00000535
  843      -16.3928643723      -0.0000000007     0.999995    0.00000532
  844      -16.3928643730      -0.0000000007     0.999995    0.00000529
  845      -16.3928643737      -0.0000000007     0.999995    0.00000527
  846      -16.3928643744      -0.0000000007     0.999995    0.00000524
  847      -16.3928643751      -0.0000000007     0.999995    0.00000521
  848      -16.3928643758      -0.0000000007     0.999995    0.00000518
  849      -16.3928643765      -0.0000000007     0.999995    0.00000515
  850      -16.3928643772      -0.0000000007     0.999995    0.00000512
  851      -16.3928643778      -0.0000000007     0.999995    0.00000509
  852      -16.3928643785      -0.0000000007     0.999995    0.00000507
  853      -16.3928643791      -0.0000000006     0.999995    0.00000504
  854      -16.3928643798      -0.0000000006     0.999995    0.00000501
  855      -16.3928643804      -0.0000000006     0.999995    0.00000498
  856      -16.3928643810      -0.0000000006     0.999995    0.00000496
  857      -16.3928643816      -0.0000000006     0.999995    0.00000493
  858      -16.3928643822      -0.0000000006     0.999995    0.00000490
  859      -16.3928643828      -0.0000000006     0.999995    0.00000488
  860      -16.3928643834      -0.0000000006     0.999995    0.00000485
  861      -16.3928643840      -0.0000000006     0.999995    0.00000482
  862      -16.3928643846      -0.0000000006     0.999995    0.00000480
  863      -16.3928643852      -0.0000000006     0.999995    0.00000477
  864      -16.3928643858      -0.0000000006     0.999995    0.00000474
  865      -16.3928643863      -0.0000000006     0.999995    0.00000472
  866      -16.3928643869      -0.0000000006     0.999995    0.00000469
  867      -16.3928643875      -0.0000000006     0.999995    0.00000467
  868      -16.3928643880      -0.0000000005     0.999995    0.00000464
  869      -16.3928643886      -0.0000000005     0.999995    0.00000462
  870      -16.3928643891      -0.0000000005     0.999995    0.00000459
  871      -16.3928643896      -0.0000000005     0.999995    0.00000457
  872      -16.3928643901      -0.0000000005     0.999995    0.00000454
  873      -16.3928643907      -0.0000000005     0.999995    0.00000452
  874      -16.3928643912      -0.0000000005     0.999995    0.00000449
  875      -16.3928643917      -0.0000000005     0.999995    0.00000447
  876      -16.3928643922      -0.0000000005     0.999995    0.00000444
  877      -16.3928643927      -0.0000000005     0.999995    0.00000442
  878      -16.3928643932      -0.0000000005     0.999995    0.00000439
  879      -16.3928643937      -0.0000000005     0.999995    0.00000437
  880      -16.3928643941      -0.0000000005     0.999995    0.00000435
  881      -16.3928643946      -0.0000000005     0.999995    0.00000432
  882      -16.3928643951      -0.0000000005     0.999995    0.00000430
  883      -16.3928643956      -0.0000000005     0.999995    0.00000428
  884      -16.3928643960      -0.0000000005     0.999995    0.00000425
  885      -16.3928643965      -0.0000000005     0.999995    0.00000423
  886      -16.3928643969      -0.0000000005     0.999995    0.00000421
  887      -16.3928643974      -0.0000000004     0.999995    0.00000418
  888      -16.3928643978      -0.0000000004     0.999995    0.00000416
  889      -16.3928643983      -0.0000000004     0.999995    0.00000414
  890      -16.3928643987      -0.0000000004     0.999995    0.00000412
  891      -16.3928643991      -0.0000000004     0.999995    0.00000409
  892      -16.3928643995      -0.0000000004     0.999995    0.00000407
  893      -16.3928644000      -0.0000000004     0.999995    0.00000405
  894      -16.3928644004      -0.0000000004     0.999995    0.00000403
  895      -16.3928644008      -0.0000000004     0.999995    0.00000400
  896      -16.3928644012      -0.0000000004     0.999995    0.00000398
  897      -16.3928644016      -0.0000000004     0.999995    0.00000396
  898      -16.3928644020      -0.0000000004     0.999995    0.00000394
  899      -16.3928644024      -0.0000000004     0.999995    0.00000392
  900      -16.3928644028      -0.0000000004     0.999995    0.00000390
  901      -16.3928644031      -0.0000000004     0.999995    0.00000387
  902      -16.3928644035      -0.0000000004     0.999995    0.00000385
  903      -16.3928644039      -0.0000000004     0.999995    0.00000383
  904      -16.3928644043      -0.0000000004     0.999995    0.00000381
  905      -16.3928644046      -0.0000000004     0.999995    0.00000379
  906      -16.3928644050      -0.0000000004     0.999995    0.00000377
  907      -16.3928644053      -0.0000000004     0.999995    0.00000375
  908      -16.3928644057      -0.0000000004     0.999995    0.00000373
  909      -16.3928644061      -0.0000000004     0.999995    0.00000371
  910      -16.3928644064      -0.0000000003     0.999995    0.00000369
  911      -16.3928644067      -0.0000000003     0.999995    0.00000367
  912      -16.3928644071      -0.0000000003     0.999995    0.00000365
  913      -16.3928644074      -0.0000000003     0.999995    0.00000363
  914      -16.3928644077      -0.0000000003     0.999995    0.00000361
  915      -16.3928644081      -0.0000000003     0.999995    0.00000359
  916      -16.3928644084      -0.0000000003     0.999995    0.00000357
  917      -16.3928644087      -0.0000000003     0.999995    0.00000355
  918      -16.3928644090      -0.0000000003     0.999995    0.00000353
  919      -16.3928644094      -0.0000000003     0.999995    0.00000351
  920      -16.3928644097      -0.0000000003     0.999995    0.00000349
  921      -16.3928644100      -0.0000000003     0.999995    0.00000347
  922      -16.3928644103      -0.0000000003     0.999995    0.00000345
  923      -16.3928644106      -0.0000000003     0.999995    0.00000343
  924      -16.3928644109      -0.0000000003     0.999995    0.00000342
  925      -16.3928644112      -0.0000000003     0.999995    0.00000340
  926      -16.3928644115      -0.0000000003     0.999995    0.00000338
  927      -16.3928644118      -0.0000000003     0.999995    0.00000336
  928      -16.3928644120      -0.0000000003     0.999995    0.00000334
  929      -16.3928644123      -0.0000000003     0.999995    0.00000332
  930      -16.3928644126      -0.0000000003     0.999995    0.00000330
  931      -16.3928644129      -0.0000000003     0.999995    0.00000329
  932      -16.3928644131      -0.0000000003     0.999995    0.00000327
  933      -16.3928644134      -0.0000000003     0.999995    0.00000325
  934      -16.3928644137      -0.0000000003     0.999995    0.00000323
  935      -16.3928644139      -0.0000000003     0.999995    0.00000322
  936      -16.3928644142      -0.0000000003     0.999995    0.00000320
  937      -16.3928644145      -0.0000000003     0.999995    0.00000318
  938      -16.3928644147      -0.0000000003     0.999995    0.00000316
  939      -16.3928644150      -0.0000000003     0.999995    0.00000315
  940      -16.3928644152      -0.0000000003     0.999995    0.00000313
  941      -16.3928644155      -0.0000000002     0.999995    0.00000311
  942      -16.3928644157      -0.0000000002     0.999995    0.00000309
  943      -16.3928644160      -0.0000000002     0.999995    0.00000308
  944      -16.3928644162      -0.0000000002     0.999995    0.00000306
  945      -16.3928644164      -0.0000000002     0.999995    0.00000304
  946      -16.3928644167      -0.0000000002     0.999995    0.00000303
  947      -16.3928644169      -0.0000000002     0.999995    0.00000301
  948      -16.3928644171      -0.0000000002     0.999995    0.00000299
  949      -16.3928644174      -0.0000000002     0.999995    0.00000298
  950      -16.3928644176      -0.0000000002     0.999995    0.00000296
  951      -16.3928644178      -0.0000000002     0.999995    0.00000295
  952      -16.3928644180      -0.0000000002     0.999995    0.00000293
  953      -16.3928644182      -0.0000000002     0.999995    0.00000291
  954      -16.3928644185      -0.0000000002     0.999995    0.00000290
  955      -16.3928644187      -0.0000000002     0.999995    0.00000288
  956      -16.3928644189      -0.0000000002     0.999995    0.00000287
  957      -16.3928644191      -0.0000000002     0.999995    0.00000285
  958      -16.3928644193      -0.0000000002     0.999995    0.00000283
  959      -16.3928644195      -0.0000000002     0.999995    0.00000282
  960      -16.3928644197      -0.0000000002     0.999995    0.00000280
  961      -16.3928644199      -0.0000000002     0.999995    0.00000279
  962      -16.3928644201      -0.0000000002     0.999995    0.00000277
  963      -16.3928644203      -0.0000000002     0.999995    0.00000276
  964      -16.3928644205      -0.0000000002     0.999995    0.00000274
  965      -16.3928644207      -0.0000000002     0.999995    0.00000273
  966      -16.3928644209      -0.0000000002     0.999995    0.00000271
  967      -16.3928644210      -0.0000000002     0.999995    0.00000270
  968      -16.3928644212      -0.0000000002     0.999995    0.00000268
  969      -16.3928644214      -0.0000000002     0.999995    0.00000267
  970      -16.3928644216      -0.0000000002     0.999995    0.00000265
  971      -16.3928644218      -0.0000000002     0.999995    0.00000264
  972      -16.3928644219      -0.0000000002     0.999995    0.00000262
  973      -16.3928644221      -0.0000000002     0.999995    0.00000261
  974      -16.3928644223      -0.0000000002     0.999995    0.00000260
  975      -16.3928644225      -0.0000000002     0.999995    0.00000258
  976      -16.3928644226      -0.0000000002     0.999995    0.00000257
  977      -16.3928644228      -0.0000000002     0.999995    0.00000255
  978      -16.3928644230      -0.0000000002     0.999995    0.00000254
  979      -16.3928644231      -0.0000000002     0.999995    0.00000253
  980      -16.3928644233      -0.0000000002     0.999995    0.00000251
  981      -16.3928644234      -0.0000000002     0.999995    0.00000250
  982      -16.3928644236      -0.0000000002     0.999995    0.00000248
  983      -16.3928644238      -0.0000000002     0.999995    0.00000247
  984      -16.3928644239      -0.0000000002     0.999995    0.00000246
  985      -16.3928644241      -0.0000000002     0.999995    0.00000244
  986      -16.3928644242      -0.0000000002     0.999995    0.00000243
  987      -16.3928644244      -0.0000000001     0.999995    0.00000242
  988      -16.3928644245      -0.0000000001     0.999995    0.00000240
  989      -16.3928644247      -0.0000000001     0.999995    0.00000239
  990      -16.3928644248      -0.0000000001     0.999995    0.00000238
  991      -16.3928644250      -0.0000000001     0.999995    0.00000236
  992      -16.3928644251      -0.0000000001     0.999995    0.00000235
  993      -16.3928644252      -0.0000000001     0.999995    0.00000234
  994      -16.3928644254      -0.0000000001     0.999995    0.00000233
  995      -16.3928644255      -0.0000000001     0.999995    0.00000231
  996      -16.3928644256      -0.0000000001     0.999995    0.00000230
  997      -16.3928644258      -0.0000000001     0.999995    0.00000229
  998      -16.3928644259      -0.0000000001     0.999995    0.00000228
  999      -16.3928644260      -0.0000000001     0.999995    0.00000226
 1000      -16.3928644262      -0.0000000001     0.999995    0.00000225

Total Energy:                      -16.3928644262 H         -446.0725 eV
Extrapolated to 0:                 -16.3585500115 H         -445.1388 eV

----------------------------------------------------------------------------------
 Solving CP-REKS equation for  1 state vector...
----------------------------------------------------------------------------------
  CG solver: Constructing Y initial guess
  CG solver: Iteration    1    eps =    0.073838317363
  CG solver: Iteration    2    eps =    0.315153956343
  CG solver: Iteration    3    eps =    0.367247691321
  CG solver: Iteration    4    eps =    0.228981234477
  CG solver: Iteration    5    eps =    0.483042914676
  CG solver: Iteration    6    eps =    0.295138487591
  CG solver: Iteration    7    eps =    0.126525627905
  CG solver: Iteration    8    eps =    0.045449283644
  CG solver: Iteration    9    eps =    0.011402112952
  CG solver: Iteration   10    eps =    0.001957933294
  CG solver: Iteration   11    eps =    0.000196781228
  CG solver: Iteration   12    eps =    0.000060412764
  CG solver: Iteration   13    eps =    0.000012052308
  CG solver: Iteration   14    eps =    0.000001902606
  CG solver: Iteration   15    eps =    0.000000620246
  CG solver: Iteration   16    eps =    0.000000153095
  CG solver: Iteration   17    eps =    0.000000013849
  CG solver: Iteration   18    eps =    0.000000001355
  Convergence reached in CG solver after   18 iterations
  CG solver: Calculating converged R, Z, Q2 matrix
----------------------------------------------------------------------------------

----------------------------------------------------------------------------------
 Solving CP-REKS equation for SI between  1 and  2 state vectors...
----------------------------------------------------------------------------------
  CG solver: Constructing Y initial guess
  CG solver: Iteration    1    eps =    0.047946740069
  CG solver: Iteration    2    eps =    0.002205583132
  CG solver: Iteration    3    eps =    0.000886340224
  CG solver: Iteration    4    eps =    0.007055533305
  CG solver: Iteration    5    eps =    0.003980021505
  CG solver: Iteration    6    eps =    0.007012101209
  CG solver: Iteration    7    eps =    0.005507879462
  CG solver: Iteration    8    eps =    0.001783953861
  CG solver: Iteration    9    eps =    0.000271326508
  CG solver: Iteration   10    eps =    0.000107070281
  CG solver: Iteration   11    eps =    0.000082254071
  CG solver: Iteration   12    eps =    0.000011589657
  CG solver: Iteration   13    eps =    0.000000834698
  CG solver: Iteration   14    eps =    0.000000066586
  CG solver: Iteration   15    eps =    0.000000006641
  Convergence reached in CG solver after   15 iterations
  CG solver: Calculating converged R, Z, Q2 matrix
----------------------------------------------------------------------------------

--------------------------------------------------
 Gradient Information
--------------------------------------------------
           1 st state (SSR)
     0.00000000     0.00000000     0.00000000
     0.00000000     0.00000000     0.00000000
     0.00000000     0.00000000     0.00000000
     0.00000000     0.00000000     0.00000000
     0.00000000     0.00000000     0.00000000
     0.00000000     0.00000000     0.00000000
     0.00000000     0.00000000     0.00000000
     0.00000000     0.00000000     0.00000000
     0.00000000     0.00000000     0.00000000
     0.00000000     0.00000000     0.00000000
     0.00000000     0.00000000     0.00000000
     0.00000000     0.00000000     0.00000000
     0.00000000     0.00000000     0.00000000
     0.00000000     0.00000000     0.00000000

           2 st state (SSR)
     0.00000000     0.00000000     0.00000000
     0.00000000     0.00000000     0.00000000
     0.00000000     0.00000000     0.00000000
     0.00000000     0.00000000     0.00000000
     0.00000000     0.00000000     0.00000000
     0.00000000     0.00000000     0.00000000
     0.00000000     0.00000000     0.00000000
     0.00000000     0.00000000     0.00000000
     0.00000000     0.00000000     0.00000000
     0.00000000     0.00000000     0.00000000
     0.00000000     0.00000000     0.00000000
     0.00000000     0.00000000     0.00000000
     0.00000000     0.00000000     0.00000000
     0.00000000     0.00000000     0.00000000
--------------------------------------------------
 Coupling Information
--------------------------------------------------
 between  1 and  2 states
--------------------------------------------------
 g vector - difference gradient
     1.65349553    -0.79446289     2.09855335
    -2.89483985     1.02225417    -2.81949289
    -0.00367269     0.02193505     0.16275463
     0.31873951     0.04831235    -0.43038181
     0.36796046     0.21531231     0.46632782
    -0.88917675    -1.14156274     0.38703827
     0.69417670     0.47446852     0.73719839
    -0.10093115     0.34651560    -0.14712191
     0.11905542    -0.48868298     0.18411104
     0.37109133     0.23583381    -0.32897160
    -0.00331351    -0.11307583     0.03032541
     0.43583168     0.06022311    -0.06042053
     0.01303220     0.00444994    -0.01910695
    -0.08144890     0.10847957    -0.26081321

 h vector - derivative coupling
    -0.19814806     0.08236721    -0.24361023
     0.33817725    -0.10862558     0.32221271
    -0.00737491    -0.00005566    -0.00459954
    -0.02842148    -0.00745536     0.03458760
    -0.02599161    -0.02598696    -0.06282639
     0.10488017     0.16429654    -0.04316097
    -0.11494957    -0.06416458    -0.07315612
     0.01622653    -0.03234621     0.01823137
    -0.01642458     0.02705172    -0.00664123
    -0.04987717    -0.05102871     0.03126695
     0.00346879     0.01017523    -0.00332660
    -0.01855995     0.01373336     0.01364256
    -0.00378310    -0.00204934     0.00875350
     0.00077768    -0.00591166     0.00862639

 G vector - GDV
     0.00000000     0.00000000     0.00000000
     0.00000000     0.00000000     0.00000000
     0.00000000     0.00000000     0.00000000
     0.00000000     0.00000000     0.00000000
     0.00000000     0.00000000     0.00000000
     0.00000000     0.00000000     0.00000000
     0.00000000     0.00000000     0.00000000
     0.00000000     0.00000000     0.00000000
     0.00000000     0.00000000     0.00000000
     0.00000000     0.00000000     0.00000000
     0.00000000     0.00000000     0.00000000
     0.00000000     0.00000000     0.00000000
     0.00000000     0.00000000     0.00000000
     0.00000000     0.00000000     0.00000000

 H vector - DCV - non-adiabatic coupling
     0.00000000     0.00000000     0.00000000
     0.00000000     0.00000000     0.00000000
     0.00000000     0.00000000     0.00000000
     0.00000000     0.00000000     0.00000000
     0.00000000     0.00000000     0.00000000
     0.00000000     0.00000000     0.00000000
     0.00000000     0.00000000     0.00000000
     0.00000000     0.00000000     0.00000000
     0.00000000     0.00000000     0.00000000
     0.00000000     0.00000000     0.00000000
     0.00000000     0.00000000     0.00000000
     0.00000000     0.00000000     0.00000000
     0.00000000     0.00000000     0.00000000
     0.00000000     0.00000000     0.00000000
--------------------------------------------------

WARNING!
-> SCC is NOT converged, maximal SCC iterations exceeded

--------------------------------------------------------------------------------
DFTB+ running times                          cpu [s]             wall clock [s]
--------------------------------------------------------------------------------
SCC                                    +     1.29  ( 76.4%)      1.30  ( 76.2%)
      Sparse to dense                        0.07  (  3.9%)      0.06  (  3.4%)
      Dense to sparse                        0.23  ( 13.6%)      0.25  ( 14.6%)
      Range separated Hamiltonian            0.12  (  6.8%)      0.10  (  6.1%)
  Density matrix creation                    0.14  (  8.3%)      0.13  (  7.9%)
  Force calculation                          0.40  ( 23.5%)      0.40  ( 23.5%)
--------------------------------------------------------------------------------
Missing                                +     0.40  ( 23.6%)      0.40  ( 23.8%)
Total                                  =     1.69  (100.0%)      1.70  (100.0%)
--------------------------------------------------------------------------------
