    14
  Step:     0            Position(A)                                  Velocity(au)
C        -6.05201365    -0.77715812    -0.22999855     0.00026391     0.00038925    -0.00003873
C        -4.71961713    -0.67443154     0.23167311     0.00017130     0.00008456    -0.00000966
H        -6.57184779     0.02787278    -0.76324940    -0.00084391     0.00043458    -0.00049759
H        -6.63844311    -1.71711052    -0.02429172     0.00031273    -0.00082478    -0.00065151
H        -4.35236148    -1.58006285     0.78452700    -0.00088035    -0.00028124     0.00043611
C        -3.90961714     0.42845475    -0.02216134    -0.00000989    -0.00018487     0.00018253
C        -2.52435358     0.44383311     0.29123780     0.00009029    -0.00011283    -0.00003807
H        -4.22821597     1.36757533    -0.49552625    -0.00095330    -0.00041934    -0.00017363
H        -1.99734087    -0.34530539     0.85554201    -0.00048000     0.00013491    -0.00002519
C        -1.79144395     1.66108984    -0.02545203     0.00001783    -0.00020068     0.00025838
H        -2.36471313     2.45436114    -0.48371707    -0.00007689    -0.00069238    -0.00045407
N        -0.53257425     1.83976138     0.11908847    -0.00019973     0.00008757    -0.00023191
H        -0.06397109     2.74782413    -0.22276852    -0.00050785     0.00043609    -0.00038802
H         0.01424278     1.22910741     0.78536799    -0.00015142     0.00028795     0.00075300
    14
  Step:     1            Position(A)                                  Velocity(au)
C        -6.04923593    -0.77297489    -0.23039392     0.00024048     0.00037499    -0.00003512
C        -4.71775903    -0.67353671     0.23157821     0.00016809     0.00007798    -0.00000666
H        -6.58078394     0.03242284    -0.76859270    -0.00077279     0.00037958    -0.00046379
H        -6.63435073    -1.72495440    -0.03178453     0.00044549    -0.00058912    -0.00072074
H        -4.36179995    -1.58197147     0.78867219    -0.00083986    -0.00006511     0.00031976
C        -3.91005324     0.42634504    -0.02021035    -0.00006931    -0.00019940     0.00017346
C        -2.52279980     0.44288468     0.29090897     0.00019222    -0.00006019    -0.00002233
H        -4.23936836     1.36238051    -0.49748488    -0.00107583    -0.00053506    -0.00018043
H        -2.00311708    -0.34367334     0.85475787    -0.00056496     0.00015026    -0.00010903
C        -1.79185125     1.65856918    -0.02263632    -0.00009298    -0.00025941     0.00025547
H        -2.36566529     2.44710013    -0.48912375    -0.00009740    -0.00063476    -0.00053248
N        -0.53419060     1.84087342     0.11665824    -0.00009490     0.00011506    -0.00021139
H        -0.07067745     2.75012654    -0.22588949    -0.00071468    -0.00001291    -0.00018311
H         0.01186791     1.23334380     0.79206139    -0.00028638     0.00049484     0.00046025
    14
  Step:     2            Position(A)                                  Velocity(au)
C        -6.04675271    -0.76895446    -0.23076697     0.00021085     0.00035985    -0.00003456
C        -4.71593982    -0.67272555     0.23152747     0.00016390     0.00006956    -0.00000187
H        -6.58875406     0.03617682    -0.77339574    -0.00066982     0.00029321    -0.00040144
H        -6.62869710    -1.72999875    -0.04005927     0.00059264    -0.00032154    -0.00079237
H        -4.37073510    -1.58148730     0.79152235    -0.00078688     0.00015009     0.00020291
C        -3.91113333     0.42409256    -0.01836668    -0.00012674    -0.00021094     0.00016309
C        -2.52014850     0.44251644     0.29074933     0.00028944    -0.00000703    -0.00000741
H        -4.25175175     1.35586985    -0.49947341    -0.00117839    -0.00065741    -0.00018005
H        -2.00970045    -0.34201808     0.85315682    -0.00062472     0.00013673    -0.00017237
C        -1.79347814     1.65541468    -0.01986322    -0.00020289    -0.00031559     0.00025055
H        -2.36684393     2.44047447    -0.49536614    -0.00011711    -0.00057916    -0.00060498
N        -0.53465035     1.84227855     0.11446400     0.00000869     0.00014028    -0.00018924
H        -0.07960614     2.74754175    -0.22677437    -0.00090435    -0.00043799     0.00001334
H         0.00797774     1.23993307     0.79543683    -0.00041883     0.00070774     0.00015813
    14
  Step:     3            Position(A)                                  Velocity(au)
C        -6.04462314    -0.76510245    -0.23114994     0.00017673     0.00034451    -0.00003675
C        -4.71417338    -0.67201492     0.23153737     0.00015807     0.00005986     0.00000413
H        -6.59543759     0.03883735    -0.77737507    -0.00054077     0.00018452    -0.00031640
H        -6.62138561    -1.73198879    -0.04911924     0.00074326    -0.00003928    -0.00086244
H        -4.37901450    -1.57868798     0.79311117    -0.00071875     0.00035202     0.00009274
C        -3.91282599     0.42173026    -0.01664243    -0.00018036    -0.00021943     0.00015181
C        -2.51646773     0.44273088     0.29074693     0.00037896     0.00004589     0.00000624
H        -4.26514796     1.34799830    -0.50142373    -0.00126131    -0.00078108    -0.00017459
H        -2.01678402    -0.34068215     0.85098697    -0.00065453     0.00009063    -0.00021177
C        -1.79628984     1.65166506    -0.01715505    -0.00030742    -0.00036721     0.00024353
H        -2.36822720     2.43442988    -0.50235892    -0.00013385    -0.00053106    -0.00066793
N        -0.53400042     1.84394221     0.11251817     0.00010507     0.00016137    -0.00016643
H        -0.09046194     2.74054468    -0.22559761    -0.00105718    -0.00079926     0.00018601
H         0.00270514     1.24882689     0.79552085    -0.00052968     0.00090602    -0.00012940
    14
  Step:     4            Position(A)                                  Velocity(au)
C        -6.04288647    -0.76141772    -0.23157094     0.00014000     0.00032955    -0.00004126
C        -4.71248169    -0.67141594     0.23161772     0.00014983     0.00004939     0.00001070
H        -6.60058444     0.04021357    -0.78031749    -0.00039253     0.00006360    -0.00021541
H        -6.61243684    -1.73085817    -0.05892672     0.00088677     0.00024035    -0.00092739
H        -4.38645921    -1.57378617     0.79355130    -0.00063332     0.00052855    -0.00000361
C        -3.91507912     0.41929208    -0.01504546    -0.00022832    -0.00022477     0.00014001
C        -2.51185796     0.44352046     0.29088590     0.00045797     0.00009747     0.00001840
H        -4.27934541     1.33878220    -0.50329281    -0.00132543    -0.00090032    -0.00016646
H        -2.02401963    -0.34003532     0.84852399    -0.00065188     0.00001106    -0.00022592
C        -1.80020359     1.64738135    -0.01453564    -0.00040243    -0.00041224     0.00023422
H        -2.36977214     2.42885647    -0.50997841    -0.00014606    -0.00049494    -0.00071810
N        -0.53235178     1.84580882     0.11082309     0.00018865     0.00017638    -0.00014382
H        -0.10273408     2.73005632    -0.22270497    -0.00115368    -0.00105526     0.00031898
H        -0.00361012     1.25975401     0.79260586    -0.00060035     0.00106957    -0.00037785
    14
  Step:     5            Position(A)                                  Velocity(au)
C        -6.04156041    -0.75789288    -0.23205260     0.00010267     0.00031556    -0.00004755
C        -4.71089553    -0.67093441     0.23177144     0.00013840     0.00003861     0.00001724
H        -6.60402489     0.04022879    -0.78208766    -0.00023274    -0.00005896    -0.00010582
H        -6.60198574    -1.72673075    -0.06940770     0.00101280     0.00049978    -0.00098413
H        -4.39286960    -1.56712497     0.79303212    -0.00052902     0.00066823    -0.00007943
C        -3.91782084     0.41681301    -0.01357954    -0.00026894    -0.00022687     0.00012802
C        -2.50644876     0.44486312     0.29114937     0.00052406     0.00014613     0.00002912
H        -4.29414432     1.32830214    -0.50506538    -0.00137199    -0.00100929    -0.00015825
H        -2.03104517    -0.34044011     0.84604463    -0.00061690    -0.00009938    -0.00021614
C        -1.80509366     1.64264657    -0.01203097    -0.00048432    -0.00044873     0.00022243
H        -2.37142246     2.42360204    -0.51806876    -0.00015292    -0.00047394    -0.00075295
N        -0.52987327     1.84780082     0.10937184     0.00025466     0.00018339    -0.00012224
H        -0.11570098     2.71745886    -0.21861930    -0.00117603    -0.00116543     0.00039666
H        -0.01042875     1.27222574     0.78725475    -0.00061349     0.00117926    -0.00056297
    14
  Step:     6            Position(A)                                  Velocity(au)
C        -6.04064046    -0.75451434    -0.23261114     0.00006675     0.00030309    -0.00005500
C        -4.70945391    -0.67057125     0.23199483     0.00012312     0.00002795     0.00002317
H        -6.60567614     0.03892369    -0.78263252    -0.00006953    -0.00017244     0.00000477
H        -6.59027994    -1.71992456    -0.08045642     0.00111111     0.00072107    -0.00102998
H        -4.39803249    -1.55916747     0.79181368    -0.00040503     0.00076098    -0.00012877
C        -3.92096268     0.41432883    -0.01224479    -0.00030094    -0.00022570     0.00011616
C        -2.50039322     0.44671742     0.29152298     0.00057540     0.00018991     0.00003883
H        -4.30936032     1.31670215    -0.50675483    -0.00140248    -0.00110239    -0.00015252
H        -2.03751559    -0.34220948     0.84379545    -0.00055257    -0.00023408    -0.00018669
C        -1.81079892     1.63756457    -0.00966955    -0.00055027    -0.00047487     0.00020791
H        -2.37311751     2.41848816    -0.52645074    -0.00015446    -0.00046962    -0.00077085
N        -0.52678059     1.84982093     0.10814878     0.00029958     0.00018099    -0.00010250
H        -0.12846196     2.70456040    -0.21402722    -0.00111146    -0.00109702     0.00040645
H        -0.01703136     1.28555267     0.78028985    -0.00055450     0.00121857    -0.00066293
    14
  Step:     7            Position(A)                                  Velocity(au)
C        -6.04010009    -0.75126211    -0.23325593     0.00003421     0.00029274    -0.00006299
C        -4.70820215    -0.67032289     0.23227839     0.00010351     0.00001776     0.00002806
H        -6.60554596     0.03645632    -0.78198320     0.00008879    -0.00026622     0.00010869
H        -6.57767806    -1.71095588    -0.09194039     0.00117191     0.00088632    -0.00106280
H        -4.40173031    -1.55047711     0.79021508    -0.00026154     0.00079923    -0.00014721
C        -3.92440443     0.41187530    -0.01103838    -0.00032347    -0.00022129     0.00010466
C        -2.49386086     0.44901779     0.29199874     0.00061082     0.00022645     0.00004823
H        -4.32482627     1.30418527    -0.50840206    -0.00141849    -0.00117462    -0.00015167
H        -2.04313380    -0.34556116     0.84196051    -0.00046439    -0.00038257    -0.00014449
C        -1.81713185     1.63225795    -0.00748264    -0.00059834    -0.00048909     0.00019042
H        -2.37480166     2.41332811    -0.53493248    -0.00015154    -0.00048194    -0.00077116
N        -0.52331947     1.85176036     0.10712952     0.00032175     0.00016883    -0.00008540
H        -0.14001625     2.69345948    -0.20972741    -0.00095715    -0.00083613     0.00034291
H        -0.02255944     1.29888429     0.77275183    -0.00041416     0.00117640    -0.00066198
    14
  Step:     8            Position(A)                                  Velocity(au)
C        -6.03989211    -0.74811010    -0.23398921     0.00000681     0.00028500    -0.00007085
C        -4.70718935    -0.67018281     0.23260859     0.00007941     0.00000818     0.00003163
H        -6.60373374     0.03309955    -0.78025463     0.00023392    -0.00033009     0.00019842
H        -6.56464227    -1.70053472    -0.10370730     0.00118635     0.00097859    -0.00108120
H        -4.40375417    -1.54168275     0.78859318    -0.00010010     0.00077924    -0.00013268
C        -3.92803911     0.40948763    -0.00995517    -0.00033614    -0.00021373     0.00009371
C        -2.48703034     0.45167140     0.29257803     0.00062978     0.00025320     0.00005826
H        -4.34039260     1.29100512    -0.51007285    -0.00142154    -0.00122190    -0.00015772
H        -2.04767493    -0.35057888     0.84063455    -0.00035952    -0.00053151    -0.00009833
C        -1.82388869     1.62686474    -0.00550383    -0.00062748    -0.00049017     0.00016977
H        -2.37643269     2.40794485    -0.54332136    -0.00014568    -0.00050924    -0.00075437
N        -0.51974171     1.85351452     0.10628048     0.00032195     0.00014828    -0.00007178
H        -0.14940135     2.68626847    -0.20652540    -0.00072477    -0.00039966     0.00021231
H        -0.02609188     1.31128859     0.76580769    -0.00019195     0.00105088    -0.00055535
    14
  Step:     9            Position(A)                                  Velocity(au)
C        -6.03995104    -0.74502718    -0.23480593    -0.00001395     0.00028019    -0.00007791
C        -4.70646485    -0.67014385     0.23297034     0.00005094    -0.00000088     0.00003390
H        -6.60042841     0.02923493    -0.77764248     0.00035800    -0.00035461     0.00026686
H        -6.55172442    -1.68954729    -0.11559374     0.00114765     0.00098403    -0.00108474
H        -4.40392023    -1.53342980     0.78731247     0.00007610     0.00070225    -0.00008623
C        -3.93175808     0.40719960    -0.00898839    -0.00033903    -0.00020316     0.00008340
C        -2.48008325     0.45455709     0.29327328     0.00063228     0.00026771     0.00006993
H        -4.35592514     1.27745380    -0.51185243    -0.00141283    -0.00124142    -0.00017208
H        -2.05099908    -0.35718903     0.83980934    -0.00024575    -0.00066651    -0.00005748
C        -1.83085928     1.62153444    -0.00376850    -0.00063750    -0.00047729     0.00014587
H        -2.37798858     2.40218761    -0.55143585    -0.00013892    -0.00054847    -0.00072198
N        -0.51627624     1.85500430     0.10555912     0.00030351     0.00012256    -0.00006233
H        -0.15587198     2.68471623    -0.20508266    -0.00044173     0.00015866     0.00003492
H        -0.02675875     1.32187440     0.76060238     0.00010095     0.00085281    -0.00035391
    14
  Step:    10            Position(A)                                  Velocity(au)
C        -6.04019720    -0.74198039    -0.23569361    -0.00002706     0.00027824    -0.00008350
C        -4.70607491    -0.67020198     0.23335017     0.00001855    -0.00000989     0.00003518
H        -6.59590183     0.02534178    -0.77441657     0.00045411    -0.00033183     0.00030791
H        -6.53953519    -1.67900710    -0.12743796     0.00105262     0.00089485    -0.00107424
H        -4.40208938    -1.52631967     0.78670671     0.00026200     0.00057541    -0.00001265
C        -3.93545603     0.40504319    -0.00813066    -0.00033262    -0.00018976     0.00007377
C        -2.47319791     0.45752807     0.29410795     0.00061884     0.00026789     0.00008416
H        -4.37130096     1.26384667    -0.51383753    -0.00139313    -0.00123187    -0.00019539
H        -2.05305115    -0.36516006     0.83937702    -0.00013025    -0.00077414    -0.00003019
C        -1.83783518     1.61642302    -0.00231265    -0.00062886    -0.00045012     0.00011871
H        -2.37947179     2.39594591    -0.55911600    -0.00013360    -0.00059547    -0.00067638
N        -0.51310181     1.85619567     0.10491684     0.00027192     0.00009619    -0.00005729
H        -0.15906512     2.68973942    -0.20576146    -0.00014676     0.00075477    -0.00015764
H        -0.02388342     1.32994551     0.75806523     0.00044068     0.00060654    -0.00008591
    14
  Step:    11            Position(A)                                  Velocity(au)
C        -6.04054305    -0.73894014    -0.23663268    -0.00003222     0.00027849    -0.00008703
C        -4.70605900    -0.67036025     0.23373988    -0.00001697    -0.00001968     0.00003610
H        -6.59049393     0.02197549    -0.77090626     0.00051719    -0.00025642     0.00031725
H        -6.52869630    -1.66997066    -0.13909477     0.00090330     0.00071290    -0.00105197
H        -4.39818858    -1.52084158     0.78703564     0.00045065     0.00041172     0.00007950
C        -3.93903483     0.40304814    -0.00737457    -0.00031773    -0.00017377     0.00006478
C        -2.46654498     0.46041770     0.29511450     0.00059034     0.00025237     0.00010161
H        -4.38640250     1.25050420    -0.51612688    -0.00136258    -0.00119368    -0.00022733
H        -2.05384862    -0.37412487     0.83914887    -0.00001879    -0.00084392    -0.00002249
C        -1.84461687     1.61168725    -0.00117147    -0.00060264    -0.00040889     0.00008846
H        -2.38091136     2.38916066    -0.56623305    -0.00013213    -0.00064517    -0.00062077
N        -0.51032739     1.85710862     0.10430581     0.00023378     0.00007377    -0.00005614
H        -0.15908262     2.70122823    -0.20853134     0.00011950     0.00129409    -0.00033006
H        -0.01711808     1.33514359     0.75872294     0.00079309     0.00034686     0.00020624
    14
  Step:    12            Position(A)                                  Velocity(au)
C        -6.04090207    -0.73588783    -0.23759765    -0.00002998     0.00027958    -0.00008807
C        -4.70644616    -0.67063243     0.23413982    -0.00005452    -0.00003127     0.00003752
H        -6.58458730     0.01973206    -0.76747620     0.00054492    -0.00012685     0.00029317
H        -6.51977367    -1.66341098    -0.15045179     0.00070809     0.00045242    -0.00102148
H        -4.39223057    -1.51731258     0.78844601     0.00063363     0.00022863     0.00017880
C        -3.94240705     0.40124165    -0.00671343    -0.00029545    -0.00015543     0.00005636
C        -2.46028310     0.46304921     0.29633081     0.00054804     0.00022075     0.00012256
H        -4.40111002     1.23773274    -0.51881085    -0.00132067    -0.00112897    -0.00026669
H        -2.05346219    -0.38362251     0.83888507     0.00008476    -0.00086962    -0.00003747
C        -1.85101918     1.60747776    -0.00037732    -0.00056033    -0.00035450     0.00005548
H        -2.38236239     2.38183158    -0.57269648    -0.00013678    -0.00069205    -0.00055888
N        -0.50798748     1.85780960     0.10368858     0.00019543     0.00005865    -0.00005756
H        -0.15645086     2.71805021    -0.21298218     0.00032466     0.00169633    -0.00045283
H        -0.00653302     1.33753372     0.76257711     0.00111966     0.00011197     0.00047434
    14
  Step:    13            Position(A)                                  Velocity(au)
C        -6.04119891    -0.73282382    -0.23855930    -0.00002180     0.00027951    -0.00008642
C        -4.70725183    -0.67104425     0.23456076    -0.00009281    -0.00004573     0.00004043
H        -6.57857276     0.01920034    -0.76449268     0.00053862     0.00005332     0.00023751
H        -6.51320542    -1.66007301    -0.16144149     0.00048149     0.00014029    -0.00098709
H        -4.38432666    -1.51583976     0.79094716     0.00080177     0.00004563     0.00027245
C        -3.94549836     0.39964780    -0.00614151    -0.00026706    -0.00013505     0.00004840
C        -2.45455560     0.46524708     0.29779582     0.00049351     0.00017372     0.00014692
H        -4.41529463     1.22580576    -0.52196123    -0.00126624    -0.00104147    -0.00031131
H        -2.05199424    -0.39314946     0.83832905     0.00017835    -0.00084964    -0.00007520
C        -1.85687520     1.60393192     0.00004234    -0.00050375    -0.00028852     0.00002032
H        -2.38390370     2.37402076    -0.57845959    -0.00014950    -0.00073040    -0.00049480
N        -0.50605198     1.85839164     0.10304656     0.00016187     0.00005221    -0.00005968
H        -0.15198015     2.73833877    -0.21843795     0.00045087     0.00191327    -0.00050883
H         0.00737656     1.33759309     0.76910014     0.00138519    -0.00006521     0.00067524
    14
  Step:    14            Position(A)                                  Velocity(au)
C        -6.04137897    -0.72977295    -0.23948824    -0.00000991     0.00027604    -0.00008229
C        -4.70847646    -0.67163280     0.23502424    -0.00013041    -0.00006393     0.00004571
H        -6.57280396     0.02089862    -0.76228021     0.00050386     0.00027457     0.00015623
H        -6.50924021    -1.66034180    -0.17204635     0.00024225    -0.00018712    -0.00095315
H        -4.37469035    -1.51631430     0.79440628     0.00094611    -0.00011880     0.00034828
C        -3.94824941     0.39828711    -0.00565464    -0.00023397    -0.00011300     0.00004074
C        -2.44948658     0.46684972     0.29954488     0.00042866     0.00011310     0.00017415
H        -4.42881153     1.21494850    -0.52562131    -0.00119766    -0.00093610    -0.00035828
H        -2.04956036    -0.40221000     0.83724000     0.00026142    -0.00078670    -0.00013307
C        -1.86203965     1.60116594     0.00006717    -0.00043496    -0.00021320    -0.00001628
H        -2.38563303     2.36585266    -0.58352125    -0.00017176    -0.00075474    -0.00043268
N        -0.50444636     1.85895175     0.10238295     0.00013609     0.00005406    -0.00006067
H        -0.14658712     2.75990669    -0.22411376     0.00049536     0.00193299    -0.00049458
H         0.02377066     1.33610704     0.77734920     0.00156444    -0.00016366     0.00077958
    14
  Step:    15            Position(A)                                  Velocity(au)
C        -6.04141566    -0.72678494    -0.24035956     0.00000301     0.00026715    -0.00007630
C        -4.71010486    -0.67244284     0.23556086    -0.00016595    -0.00008632     0.00005407
H        -6.56754993     0.02520711    -0.76107493     0.00045015     0.00052162     0.00005917
H        -6.50790575    -1.66416654    -0.18229337     0.00001015    -0.00049030    -0.00092306
H        -4.36362871    -1.51843866     0.79856642     0.00105897    -0.00024981     0.00039657
C        -3.95061695     0.39717563    -0.00525021    -0.00019768    -0.00008974     0.00003326
C        -2.44517787     0.46772136     0.30160568     0.00035563     0.00004172     0.00020340
H        -4.44149569     1.20532674    -0.52979932    -0.00111302    -0.00081852    -0.00040427
H        -2.04627513    -0.41035997     0.83541796     0.00033452    -0.00068709    -0.00020654
C        -1.86639069     1.59926785    -0.00031385    -0.00035617    -0.00013140    -0.00005339
H        -2.38766136     2.35750937    -0.58792521    -0.00020443    -0.00076023    -0.00037640
N        -0.50307480     1.85957435     0.10171927     0.00011913     0.00006272    -0.00005921
H        -0.14114329     2.78062673    -0.22925787     0.00046654     0.00177256    -0.00041731
H         0.04160179     1.33401264     0.78615490     0.00164536    -0.00017666     0.00077570
    14
  Step:    16            Position(A)                                  Velocity(au)
C        -6.04131322    -0.72392863    -0.24115743     0.00001422     0.00025157    -0.00006943
C        -4.71210701    -0.67352122     0.23620703    -0.00019816    -0.00011280     0.00006583
H        -6.56295608     0.03231000    -0.76098571     0.00038977     0.00077494    -0.00004101
H        -6.50901826    -1.67106810    -0.19224005    -0.00019760    -0.00073413    -0.00089880
H        -4.35152338    -1.52177945     0.80308192     0.00113474    -0.00033801     0.00041124
C        -3.95257409     0.39632385    -0.00492700    -0.00015966    -0.00006583     0.00002585
C        -2.44170647     0.46776251     0.30399465     0.00027676    -0.00003674     0.00023352
H        -4.45316094     1.19704188    -0.53446554    -0.00101053    -0.00069454    -0.00044587
H        -2.04224204    -0.41724146     0.83272156     0.00039896    -0.00055979    -0.00028980
C        -1.86983163     1.59829138    -0.00110073    -0.00026974    -0.00004643    -0.00008994
H        -2.39010542     2.34922125    -0.59175566    -0.00024763    -0.00074310    -0.00032927
N        -0.50184009     1.86032379     0.10108761     0.00011049     0.00007631    -0.00005471
H        -0.13638063     2.79868487    -0.23324322     0.00037901     0.00146602    -0.00029024
H         0.05976612     1.33224235     0.79431917     0.00162853    -0.00010997     0.00066806
    14
  Step:    17            Position(A)                                  Velocity(au)
C        -6.04110456    -0.72128135    -0.24187851     0.00002140     0.00022908    -0.00006288
C        -4.71443997    -0.67491061     0.23700092    -0.00022598    -0.00014273     0.00008097
H        -6.55902297     0.04216044    -0.76197203     0.00033580     0.00101336    -0.00013073
H        -6.51222855    -1.68022707    -0.20195636    -0.00036886    -0.00089371    -0.00088077
H        -4.33880417    -1.52583319     0.80756302     0.00117032    -0.00037986     0.00039025
C        -3.95410982     0.39573545    -0.00468462    -0.00012131    -0.00004195     0.00001847
C        -2.43912320     0.46691758     0.30671443     0.00019446    -0.00011808     0.00026319
H        -4.46360296     1.19013238    -0.53955352    -0.00088884    -0.00056960    -0.00047995
H        -2.03754709    -0.42260636     0.82907797     0.00045652    -0.00041546    -0.00037644
C        -1.87229181     1.59825202    -0.00228142    -0.00017805     0.00003814    -0.00012483
H        -2.39307868     2.34125261    -0.59512869    -0.00030055    -0.00070113    -0.00029364
N        -0.50065754     1.86124388     0.10052229     0.00010866     0.00009310    -0.00004727
H        -0.13285182     2.81269867    -0.23560752     0.00024935     0.00105399    -0.00012871
H         0.07722893     1.33160675     0.80076998     0.00152404     0.00002220     0.00047244
    14
  Step:    18            Position(A)                                  Velocity(au)
C        -6.04084500    -0.71891712    -0.24253309     0.00002289     0.00020040    -0.00005783
C        -4.71705067    -0.67664379     0.23797851    -0.00024861    -0.00017502     0.00009916
H        -6.55560975     0.05447923    -0.76384578     0.00029994     0.00121715    -0.00019769
H        -6.51708782    -1.69061964    -0.21150852    -0.00049758    -0.00095686    -0.00086812
H        -4.32592045    -1.53008970     0.81161947     0.00116511    -0.00037706     0.00033517
C        -3.95522798     0.39540602    -0.00452285    -0.00008392    -0.00001889     0.00001114
C        -2.43745239     0.46517923     0.30975247     0.00011108    -0.00019786     0.00029100
H        -4.47260611     1.18458088    -0.54496532    -0.00074737    -0.00044829    -0.00050402
H        -2.03225481    -0.42633038     0.82448626     0.00050928    -0.00026568    -0.00045994
C        -1.87372678     1.59912587    -0.00383172    -0.00008346     0.00011883    -0.00015701
H        -2.39668044     2.33388262    -0.59817949    -0.00036133    -0.00063398    -0.00027048
N        -0.49946295     1.86236048     0.10005358     0.00011159     0.00011155    -0.00003741
H        -0.13092563     2.82174282    -0.23605909     0.00009393     0.00057755     0.00005207
H         0.09310743     1.33272807     0.80465460     0.00134789     0.00020141     0.00021083
    14
  Step:    19            Position(A)                                  Velocity(au)
C        -6.04060372    -0.71689721    -0.24314360     0.00001785     0.00016695    -0.00005523
C        -4.71987887    -0.67873949     0.23917033    -0.00026557    -0.00020826     0.00011978
H        -6.55246121     0.06878784    -0.76629682     0.00029066     0.00137074    -0.00023264
H        -6.52311408    -1.70116013    -0.22094814    -0.00058321    -0.00092341    -0.00085931
H        -4.31331508    -1.53408213     0.81489553     0.00112078    -0.00033527     0.00025035
C        -3.95594575     0.39532216    -0.00444088    -0.00004862     0.00000251     0.00000395
C        -2.43669303     0.46258894     0.31308069     0.00002886    -0.00027176     0.00031558
H        -4.47995317     1.18032527    -0.55057983    -0.00058649    -0.00033410    -0.00051641
H        -2.02640565    -0.42841867     0.81901581     0.00055951    -0.00012222    -0.00053415
C        -1.87411770     1.60085164    -0.00571630     0.00001174     0.00019243    -0.00018554
H        -2.40098354     2.32738300    -0.60104601    -0.00042694    -0.00054346    -0.00025920
N        -0.49821630     1.86368424     0.09970397     0.00011701     0.00013034    -0.00002590
H        -0.13079698     2.82533367    -0.23446829    -0.00007186     0.00007618     0.00023775
H         0.10671653     1.33601292     0.80538229     0.00111900     0.00040784    -0.00009240
    14
  Step:    20            Position(A)                                  Velocity(au)
C        -6.04045459    -0.71526478    -0.24374125     0.00000620     0.00013042    -0.00005567
C        -4.72286053    -0.68119993     0.24059903    -0.00027665    -0.00024091     0.00014205
H        -6.54925098     0.08446688    -0.76893516     0.00031224     0.00146451    -0.00023052
H        -6.52984662    -1.71082096    -0.23030767    -0.00062929    -0.00080227    -0.00085262
H        -4.30140128    -1.53742434     0.81709640     0.00104083    -0.00026288     0.00014210
C        -3.95629163     0.39546085    -0.00443649    -0.00001634     0.00002136    -0.00000295
C        -2.43682099     0.45923405     0.31665646    -0.00005025    -0.00033585     0.00033569
H        -4.48543674     1.17727175    -0.55626273    -0.00040764    -0.00022932    -0.00051641
H        -2.02001441    -0.42900416     0.81280062     0.00060956     0.00000371    -0.00059361
C        -1.87347004     1.60333560    -0.00789078     0.00010539     0.00025631    -0.00020973
H        -2.40602054     2.32199347    -0.60384997    -0.00049305    -0.00043354    -0.00025742
N        -0.49690309     1.86521200     0.09948702     0.00012257     0.00014820    -0.00001356