|===============================================================================
|
|  DFTB+ release 20.1
|
|  Copyright (C) 2006 - 2020  DFTB+ developers group
|
|===============================================================================
|
|  When publishing results obtained with DFTB+, please cite the following
|  reference:
|
|  * DFTB+, a software package for efficient approximate density functional
|    theory based atomistic simulations, J. Chem. Phys. 152, 124101 (2020).
|    [doi: 10.1063/1.5143190]
|
|  You should also cite additional publications crediting the parametrization
|  data you use. Please consult the documentation of the SK-files for the
|  references.
|
|===============================================================================

Reading input file 'dftb_in.hsd'
Parser version: 8

--------------------------------------------------------------------------------
Reading SK-files:
Done.


Processed input in HSD format written to 'dftb_pin.hsd'

Starting initialization...
--------------------------------------------------------------------------------
OpenMP threads:              1
Chosen random seed:          509734062
Mode:                        Static calculation
Self consistent charges:     Yes
SCC-tolerance:                 0.100000E-05
Max. scc iterations:                   1000
Shell resolved Hubbard:      No
Spin polarisation:           No
Nr. of up electrons:             6.000000
Nr. of down electrons:           6.000000
Periodic boundaries:         No
Electronic solver:           Relatively robust
Maximal SCC-cycles:                    1000
Initial charges:             Set automatically (system chrg:   0.100E+01)
Included shells:             C:  s, p
                             N:  s, p
                             H:  s
Spin coupling constants:     C   1(s)-1(s):  -0.455900E-01
                             C   1(s)-2(p):  -0.293000E-01
                             C   2(p)-1(s):  -0.293000E-01
                             C   2(p)-2(p):  -0.275500E-01
                             N   1(s)-1(s):  -0.468700E-01
                             N   1(s)-2(p):  -0.317000E-01
                             N   2(p)-1(s):  -0.317000E-01
                             N   2(p)-2(p):  -0.307200E-01
                             H   1(s)-1(s):  -0.792500E-01
Range separated hybrid:      Yes
  Screening parameter omega:   0.300000E+00
  Range separated algorithm:   MatrixBased
Extra options:
                             Mulliken analysis
                             Force calculation
Force type                   original
                             Eigenvector printing


REKS Calcuation:             Yes
SSR(2,2) Calcuation:         Yes
Energy Functional:           (PPS+OSS)/2
Number of Core Orbitals:                  5
Number of Active Orbitals:                2
Number of Basis:                         12
Number of States:                         2
State-Averaging Weight:          0.500000
                                 0.500000
State of Interest:                        1
Initial Guess:               Diagonalize H0 matrix
Newton-Raphson for FON opt:  Yes
NR max. Iterations:                      50
Level Shifting:              Yes
Shift Value:                     0.300000
W Scale Factor:              C  =    3.000000
                             N  =    3.000000
                             H  =    3.000000
Transition Dipole:           No
Gradient of Microstate:      No
CP-REKS Solver:              Preconditioned Conjugate-Gradient
CG max. Iterations:                     100
CG Tolerance:                  0.100000E-07
Memory for A and Hxc:        Direct Updating Without Saving
Non-Adiabatic Coupling:      Yes

--------------------------------------------------------------------------------

***  Geometry step: 0

  iSCC       reks energy        Diff energy         x_a       SCC error   
    1       -6.2614377444       0.0000000000     0.998838    1.17293040
    2       -6.2753371110      -0.0138993665     0.999567    0.11130763
    3       -6.2794231419      -0.0040860309     0.999771    0.05255090
    4       -6.2813111190      -0.0018879771     0.999852    0.02690338
    5       -6.2823829323      -0.0010718133     0.999890    0.01466325
    6       -6.2830874421      -0.0007045098     0.999911    0.00810452
    7       -6.2835914172      -0.0005039751     0.999922    0.00689283
    8       -6.2839652549      -0.0003738376     0.999930    0.00614354
    9       -6.2842452231      -0.0002799682     0.999935    0.00535915
   10       -6.2844543036      -0.0002090804     0.999938    0.00461056
   11       -6.2846092362      -0.0001549327     0.999941    0.00396208
   12       -6.2847229964      -0.0001137601     0.999942    0.00345234
   13       -6.2848057837      -0.0000827873     0.999944    0.00298071
   14       -6.2848655532      -0.0000597695     0.999945    0.00255959
   15       -6.2849084133      -0.0000428602     0.999945    0.00224368
   16       -6.2849389765      -0.0000305632     0.999946    0.00195307
   17       -6.2849606723      -0.0000216958     0.999946    0.00169027
   18       -6.2849760177      -0.0000153454     0.999946    0.00145571
   19       -6.2849868402      -0.0000108226     0.999947    0.00124852
   20       -6.2849944556      -0.0000076154     0.999947    0.00106705
   21       -6.2849998046      -0.0000053489     0.999947    0.00090919
   22       -6.2850035562      -0.0000037516     0.999947    0.00077265
   23       -6.2850061844      -0.0000026282     0.999947    0.00065512
   24       -6.2850080240      -0.0000018395     0.999947    0.00055436
   25       -6.2850093105      -0.0000012865     0.999947    0.00046829
   26       -6.2850102097      -0.0000008992     0.999947    0.00039499
   27       -6.2850108379      -0.0000006282     0.999947    0.00033272
   28       -6.2850112765      -0.0000004386     0.999947    0.00027994
   29       -6.2850115827      -0.0000003062     0.999947    0.00023530
   30       -6.2850117963      -0.0000002136     0.999947    0.00019760
   31       -6.2850119454      -0.0000001490     0.999947    0.00016581
   32       -6.2850120493      -0.0000001040     0.999947    0.00013904
   33       -6.2850121218      -0.0000000725     0.999947    0.00011652
   34       -6.2850121724      -0.0000000505     0.999947    0.00009760
   35       -6.2850122076      -0.0000000352     0.999947    0.00008171
   36       -6.2850122322      -0.0000000246     0.999947    0.00006839
   37       -6.2850122493      -0.0000000171     0.999947    0.00005721
   38       -6.2850122612      -0.0000000119     0.999947    0.00004785
   39       -6.2850122695      -0.0000000083     0.999947    0.00004001
   40       -6.2850122753      -0.0000000058     0.999947    0.00003344
   41       -6.2850122794      -0.0000000040     0.999947    0.00002795
   42       -6.2850122822      -0.0000000028     0.999947    0.00002336
   43       -6.2850122841      -0.0000000020     0.999947    0.00001951
   44       -6.2850122855      -0.0000000014     0.999947    0.00001630
   45       -6.2850122864      -0.0000000010     0.999947    0.00001362
   46       -6.2850122871      -0.0000000007     0.999947    0.00001137
   47       -6.2850122876      -0.0000000005     0.999947    0.00000950
   48       -6.2850122879      -0.0000000003     0.999947    0.00000793
   49       -6.2850122881      -0.0000000002     0.999947    0.00000662
   50       -6.2850122883      -0.0000000002     0.999947    0.00000553
   51       -6.2850122884      -0.0000000001     0.999947    0.00000462
   52       -6.2850122884      -0.0000000001     0.999947    0.00000385
   53       -6.2850122885      -0.0000000001     0.999947    0.00000322
   54       -6.2850122885      -0.0000000000     0.999947    0.00000269
   55       -6.2850122886      -0.0000000000     0.999947    0.00000224
   56       -6.2850122886      -0.0000000000     0.999947    0.00000187
   57       -6.2850122886      -0.0000000000     0.999947    0.00000156
   58       -6.2850122886      -0.0000000000     0.999947    0.00000130
   59       -6.2850122886      -0.0000000000     0.999947    0.00000109
   60       -6.2850122886      -0.0000000000     0.999947    0.00000091
  
--------------------------------------------------
 Final SA-REKS(2,2) energy:      -6.28501229
  
 State     Energy      FON(1)    FON(2)   Spin
  PPS   -6.41032849   1.999894  0.000106  0.00
  OSS   -6.15969608   1.000000  1.000000  0.00
 Trip   -6.24081621   1.000000  1.000000  1.00
--------------------------------------------------

 Lagrangian Wab:  -0.00626981 -0.00626955

--------------------------------------------------
 SSR: 2SI-2SA-REKS(2,2) Hamiltonian matrix
               PPS           OSS
   PPS    -6.41032849   -0.00880204
   OSS    -0.00880204   -6.15969608
--------------------------------------------------

----------------------------------------------------------------
 SSR: 2SI-2SA-REKS(2,2) states
                    E_n       C_{PPS}    C_{OSS}
 SSR state  1   -6.41063723  -0.999385  -0.035055
 SSR state  2   -6.15938734   0.035055  -0.999385
----------------------------------------------------------------

 unrelaxed SSR FONs for S0:  1.998665  0.001335

Total Energy:                       -6.4106372340 H         -174.4423 eV
Extrapolated to 0:                  -6.4106372340 H         -174.4423 eV

----------------------------------------------------------------------------------
 Solving CP-REKS equation for  1 state vector...
----------------------------------------------------------------------------------
  CG solver: Constructing Y initial guess
  CG solver: Iteration    1    eps =    0.000103360815
  CG solver: Iteration    2    eps =    0.000069678733
  CG solver: Iteration    3    eps =    0.000005459208
  CG solver: Iteration    4    eps =    0.000000882556
  CG solver: Iteration    5    eps =    0.000000009874
  Convergence reached in CG solver after    5 iterations
  CG solver: Calculating converged R, Z, Q2 matrix
----------------------------------------------------------------------------------

----------------------------------------------------------------------------------
 Solving CP-REKS equation for SI between  1 and  2 state vectors...
----------------------------------------------------------------------------------
  CG solver: Constructing Y initial guess
  CG solver: Iteration    1    eps =    0.002606734881
  CG solver: Iteration    2    eps =    0.003847049029
  CG solver: Iteration    3    eps =    0.000519212516
  CG solver: Iteration    4    eps =    0.000006213798
  CG solver: Iteration    5    eps =    0.000000888560
  CG solver: Iteration    6    eps =    0.000000018555
  CG solver: Iteration    7    eps =    0.000000001280
  Convergence reached in CG solver after    7 iterations
  CG solver: Calculating converged R, Z, Q2 matrix
----------------------------------------------------------------------------------

--------------------------------------------------
 Gradient Information
--------------------------------------------------
           1 st state (SSR)
     0.00596996     0.00617708    -0.00941061
    -0.00941016    -0.00052147     0.01362213
     0.01272233     0.00377606     0.00304438
     0.01533855    -0.00746870    -0.00502338
    -0.00980103     0.00467081    -0.00712789
    -0.01481965    -0.00663378     0.00489537

           2 st state (SSR)
    -0.00496561    -0.00354756     0.09562983
     0.00962526     0.01091306    -0.10615937
    -0.01040162    -0.00428189     0.01756368
    -0.01191567     0.00026112    -0.01180937
     0.00732229    -0.00489952    -0.01532902
     0.01033536     0.00155479     0.02010426
--------------------------------------------------
 Coupling Information
--------------------------------------------------
 between  1 and  2 states
--------------------------------------------------
 g vector - difference gradient
     0.00557920     0.00498578    -0.05400557
    -0.00976500    -0.00592174     0.06109078
     0.01243319     0.00375117    -0.00716920
     0.01470887    -0.00378888     0.00344682
    -0.00948486     0.00482713     0.00417819
    -0.01347140    -0.00385346    -0.00754102

 h vector - derivative coupling
    -0.00139438    -0.00158720     0.01930507
     0.00318692     0.00271069    -0.01498442
    -0.01199818     0.00409641    -0.00154249
    -0.01492328    -0.00121796    -0.00064725
     0.01284353    -0.00042966    -0.00096121
     0.01228539    -0.00357229    -0.00116970

 G vector - GDV
     0.00546779     0.00486232    -0.05252022
    -0.00951771    -0.00571726     0.05989075
     0.01156197     0.00402897    -0.00725965
     0.01362711    -0.00386491     0.00339300
    -0.00856166     0.00478517     0.00410057
    -0.01257750    -0.00409429    -0.00760444

 H vector - DCV - non-adiabatic coupling
    -0.00709202    -0.00769206     0.09170784
     0.01537627     0.01241368    -0.07652932
    -0.05110384     0.01521796    -0.00412490
    -0.06335205    -0.00377907    -0.00353102
     0.05363795    -0.00305201    -0.00498148
     0.05253368    -0.01310851    -0.00254113
--------------------------------------------------


--------------------------------------------------------------------------------
DFTB+ running times                          cpu [s]             wall clock [s]
--------------------------------------------------------------------------------
SCC                                    +     0.03  ( 71.1%)      0.03  ( 65.1%)
Post-SCC processing                    +     0.01  ( 25.5%)      0.01  ( 25.6%)
  Force calculation                          0.01  ( 25.0%)      0.01  ( 23.3%)
--------------------------------------------------------------------------------
Missing                                +     0.00  (  3.4%)      0.00  (  9.3%)
Total                                  =     0.04  (100.0%)      0.04  (100.0%)
--------------------------------------------------------------------------------
