|===============================================================================
|
|  DFTB+ release 20.1
|
|  Copyright (C) 2006 - 2020  DFTB+ developers group
|
|===============================================================================
|
|  When publishing results obtained with DFTB+, please cite the following
|  reference:
|
|  * DFTB+, a software package for efficient approximate density functional
|    theory based atomistic simulations, J. Chem. Phys. 152, 124101 (2020).
|    [doi: 10.1063/1.5143190]
|
|  You should also cite additional publications crediting the parametrization
|  data you use. Please consult the documentation of the SK-files for the
|  references.
|
|===============================================================================

Reading input file 'dftb_in.hsd'
Parser version: 8

--------------------------------------------------------------------------------
Reading SK-files:
Done.


Processed input in HSD format written to 'dftb_pin.hsd'

Starting initialization...
--------------------------------------------------------------------------------
OpenMP threads:              1
Chosen random seed:          503738959
Mode:                        Static calculation
Self consistent charges:     Yes
SCC-tolerance:                 0.100000E-05
Max. scc iterations:                   1000
Shell resolved Hubbard:      No
Spin polarisation:           No
Nr. of up electrons:            16.000000
Nr. of down electrons:          16.000000
Periodic boundaries:         No
Electronic solver:           Relatively robust
Maximal SCC-cycles:                    1000
Initial charges:             Set automatically (system chrg:   0.100E+01)
Included shells:             C:  s, p
                             H:  s
                             N:  s, p
Spin coupling constants:     C   1(s)-1(s):  -0.455900E-01
                             C   1(s)-2(p):  -0.293000E-01
                             C   2(p)-1(s):  -0.293000E-01
                             C   2(p)-2(p):  -0.275500E-01
                             H   1(s)-1(s):  -0.792500E-01
                             N   1(s)-1(s):  -0.468700E-01
                             N   1(s)-2(p):  -0.317000E-01
                             N   2(p)-1(s):  -0.317000E-01
                             N   2(p)-2(p):  -0.307200E-01
Range separated hybrid:      Yes
  Screening parameter omega:   0.300000E+00
  Range separated algorithm:   MatrixBased
Extra options:
                             Mulliken analysis
                             Force calculation
Force type                   original
                             Eigenvector printing


REKS Calcuation:             Yes
SSR(2,2) Calcuation:         Yes
Energy Functional:           (PPS+OSS)/2
Number of Core Orbitals:                 15
Number of Active Orbitals:                2
Number of Basis:                         32
Number of States:                         2
State-Averaging Weight:          0.500000
                                 0.500000
State of Interest:                        1
Initial Guess:               Diagonalize H0 matrix
Newton-Raphson for FON opt:  Yes
NR max. Iterations:                      50
Level Shifting:              Yes
Shift Value:                     0.300000
W Scale Factor:              C  =    3.200000
                             H  =    3.200000
                             N  =    3.200000
Transition Dipole:           No
Gradient of Microstate:      No
CP-REKS Solver:              Preconditioned Conjugate-Gradient
CG max. Iterations:                     100
CG Tolerance:                  0.100000E-07
Memory for A and Hxc:        Direct Updating Without Saving
Non-Adiabatic Coupling:      Yes

--------------------------------------------------------------------------------

***  Geometry step: 0

  iSCC       reks energy        Diff energy         x_a       SCC error   
    1      -16.3931184806       0.0000000000     0.990931    1.24076877
    2      -16.4149402729      -0.0218217922     0.999016    0.08778104
    3      -16.4203441282      -0.0054038553     0.999710    0.04022807
    4      -16.4221697769      -0.0018256488     0.999858    0.01839277
    5      -16.4229278745      -0.0007580976     0.999909    0.01056822
    6      -16.4233023701      -0.0003744956     0.999932    0.00732969
    7      -16.4235201830      -0.0002178129     0.999944    0.00518306
    8      -16.4236674705      -0.0001472875     0.999952    0.00374291
    9      -16.4237805516      -0.0001130811     0.999957    0.00276221
   10      -16.4238759882      -0.0000954366     0.999960    0.00208373
   11      -16.4239617717      -0.0000857836     0.999963    0.00178062
   12      -16.4240419158      -0.0000801441     0.999965    0.00180412
   13      -16.4241184906      -0.0000765748     0.999967    0.00181356
   14      -16.4241925772      -0.0000740866     0.999968    0.00181224
   15      -16.4242647343      -0.0000721571     0.999970    0.00180233
   16      -16.4243352356      -0.0000705013     0.999971    0.00178529
   17      -16.4244041955      -0.0000689599     0.999973    0.00176220
   18      -16.4244716376      -0.0000674420     0.999974    0.00173390
   19      -16.4245375341      -0.0000658966     0.999975    0.00170106
   20      -16.4246018304      -0.0000642963     0.999976    0.00168602
   21      -16.4246644592      -0.0000626287     0.999977    0.00173878
   22      -16.4247253506      -0.0000608914     0.999979    0.00178484
   23      -16.4247844387      -0.0000590882     0.999980    0.00182461
   24      -16.4248416658      -0.0000572271     0.999981    0.00185843
   25      -16.4248969846      -0.0000553189     0.999982    0.00188657
   26      -16.4249503604      -0.0000533758     0.999982    0.00190932
   27      -16.4250017711      -0.0000514107     0.999983    0.00192694
   28      -16.4250512074      -0.0000494363     0.999984    0.00193971
   29      -16.4250986723      -0.0000474649     0.999985    0.00194791
   30      -16.4251441803      -0.0000455080     0.999986    0.00195183
   31      -16.4251877562      -0.0000435759     0.999987    0.00195177
   32      -16.4252294338      -0.0000416775     0.999987    0.00194802
   33      -16.4252692546      -0.0000398208     0.999988    0.00194090
   34      -16.4253072668      -0.0000380123     0.999989    0.00193069
   35      -16.4253435239      -0.0000362570     0.999989    0.00191770
   36      -16.4253780832      -0.0000345593     0.999990    0.00190219
   37      -16.4254110052      -0.0000329220     0.999990    0.00188445
   38      -16.4254423524      -0.0000313472     0.999991    0.00186474
   39      -16.4254721886      -0.0000298362     0.999991    0.00184330
   40      -16.4255005779      -0.0000283893     0.999992    0.00182036
   41      -16.4255275843      -0.0000270064     0.999992    0.00179613
   42      -16.4255532710      -0.0000256868     0.999993    0.00177083
   43      -16.4255777004      -0.0000244294     0.999993    0.00174462
   44      -16.4256009331      -0.0000232327     0.999993    0.00171768
   45      -16.4256230282      -0.0000220950     0.999994    0.00169017
   46      -16.4256440426      -0.0000210144     0.999994    0.00166222
   47      -16.4256640314      -0.0000199888     0.999994    0.00163395
   48      -16.4256830474      -0.0000190160     0.999995    0.00160548
   49      -16.4257011411      -0.0000180937     0.999995    0.00157691
   50      -16.4257183610      -0.0000172198     0.999995    0.00154833
   51      -16.4257347530      -0.0000163920     0.999995    0.00151983
   52      -16.4257503610      -0.0000156080     0.999996    0.00149145
   53      -16.4257652266      -0.0000148657     0.999996    0.00146328
   54      -16.4257793895      -0.0000141628     0.999996    0.00143536
   55      -16.4257928870      -0.0000134975     0.999996    0.00140774
   56      -16.4258057546      -0.0000128676     0.999996    0.00138046
   57      -16.4258180259      -0.0000122713     0.999997    0.00135356
   58      -16.4258297327      -0.0000117067     0.999997    0.00132705
   59      -16.4258409048      -0.0000111722     0.999997    0.00130096
   60      -16.4258515707      -0.0000106659     0.999997    0.00127533
   61      -16.4258617571      -0.0000101864     0.999997    0.00125015
   62      -16.4258714891      -0.0000097321     0.999997    0.00122544
   63      -16.4258807907      -0.0000093016     0.999997    0.00120121
   64      -16.4258896842      -0.0000088935     0.999997    0.00117747
   65      -16.4258981909      -0.0000085067     0.999998    0.00115422
   66      -16.4259063308      -0.0000081399     0.999998    0.00113147
   67      -16.4259141227      -0.0000077919     0.999998    0.00110921
   68      -16.4259215844      -0.0000074617     0.999998    0.00108744
   69      -16.4259287327      -0.0000071483     0.999998    0.00106616
   70      -16.4259355835      -0.0000068508     0.999998    0.00104537
   71      -16.4259421516      -0.0000065681     0.999998    0.00102506
   72      -16.4259484513      -0.0000062996     0.999998    0.00100523
   73      -16.4259544957      -0.0000060444     0.999998    0.00098586
   74      -16.4259602975      -0.0000058018     0.999998    0.00096696
   75      -16.4259658686      -0.0000055711     0.999998    0.00094851
   76      -16.4259712201      -0.0000053515     0.999998    0.00093050
   77      -16.4259763627      -0.0000051426     0.999998    0.00091293
   78      -16.4259813064      -0.0000049437     0.999999    0.00089579
   79      -16.4259860606      -0.0000047542     0.999999    0.00087907
   80      -16.4259906343      -0.0000045737     0.999999    0.00086277
   81      -16.4259950360      -0.0000044017     0.999999    0.00084686
   82      -16.4259992736      -0.0000042376     0.999999    0.00083134
   83      -16.4260033548      -0.0000040812     0.999999    0.00081621
   84      -16.4260072868      -0.0000039319     0.999999    0.00080145
   85      -16.4260110762      -0.0000037895     0.999999    0.00078705
   86      -16.4260147297      -0.0000036534     0.999999    0.00077301
   87      -16.4260182532      -0.0000035235     0.999999    0.00075932
   88      -16.4260216526      -0.0000033994     0.999999    0.00074596
   89      -16.4260249333      -0.0000032807     0.999999    0.00073294
   90      -16.4260281006      -0.0000031673     0.999999    0.00072023
   91      -16.4260311594      -0.0000030588     0.999999    0.00070783
   92      -16.4260341144      -0.0000029550     0.999999    0.00069573
   93      -16.4260369700      -0.0000028556     0.999999    0.00068393
   94      -16.4260397304      -0.0000027605     0.999999    0.00067242
   95      -16.4260423998      -0.0000026693     0.999999    0.00066119
   96      -16.4260449818      -0.0000025821     0.999999    0.00065022
   97      -16.4260474802      -0.0000024984     0.999999    0.00063952
   98      -16.4260498984      -0.0000024182     0.999999    0.00062908
   99      -16.4260522396      -0.0000023412     0.999999    0.00061889
  100      -16.4260545071      -0.0000022674     0.999999    0.00060894
  101      -16.4260567037      -0.0000021966     0.999999    0.00059922
  102      -16.4260588323      -0.0000021286     0.999999    0.00058974
  103      -16.4260608957      -0.0000020634     0.999999    0.00058047
  104      -16.4260628964      -0.0000020007     0.999999    0.00057143
  105      -16.4260648368      -0.0000019404     0.999999    0.00056259
  106      -16.4260667193      -0.0000018825     0.999999    0.00055396
  107      -16.4260685461      -0.0000018268     0.999999    0.00054553
  108      -16.4260703194      -0.0000017733     0.999999    0.00053729
  109      -16.4260720411      -0.0000017218     0.999999    0.00052924
  110      -16.4260737133      -0.0000016722     0.999999    0.00052138
  111      -16.4260753378      -0.0000016245     0.999999    0.00051369
  112      -16.4260769164      -0.0000015786     0.999999    0.00050618
  113      -16.4260784507      -0.0000015343     0.999999    0.00049883
  114      -16.4260799424      -0.0000014917     0.999999    0.00049165
  115      -16.4260813930      -0.0000014506     1.000000    0.00048463
  116      -16.4260828040      -0.0000014110     1.000000    0.00047776
  117      -16.4260841769      -0.0000013729     1.000000    0.00047104
  118      -16.4260855130      -0.0000013361     1.000000    0.00046447
  119      -16.4260868135      -0.0000013005     1.000000    0.00045805
  120      -16.4260880798      -0.0000012663     1.000000    0.00045176
  121      -16.4260893130      -0.0000012332     1.000000    0.00044561
  122      -16.4260905143      -0.0000012013     1.000000    0.00043959
  123      -16.4260916847      -0.0000011704     1.000000    0.00043370
  124      -16.4260928254      -0.0000011407     1.000000    0.00042793
  125      -16.4260939372      -0.0000011119     1.000000    0.00042229
  126      -16.4260950213      -0.0000010841     1.000000    0.00041676
  127      -16.4260960785      -0.0000010572     1.000000    0.00041135
  128      -16.4260971097      -0.0000010312     1.000000    0.00040605
  129      -16.4260981158      -0.0000010061     1.000000    0.00040086
  130      -16.4260990976      -0.0000009818     1.000000    0.00039578
  131      -16.4261000558      -0.0000009582     1.000000    0.00039080
  132      -16.4261009913      -0.0000009355     1.000000    0.00038592
  133      -16.4261019047      -0.0000009134     1.000000    0.00038114
  134      -16.4261027968      -0.0000008921     1.000000    0.00037646
  135      -16.4261036683      -0.0000008714     1.000000    0.00037187
  136      -16.4261045197      -0.0000008514     1.000000    0.00036737
  137      -16.4261053517      -0.0000008320     1.000000    0.00036296
  138      -16.4261061650      -0.0000008133     1.000000    0.00035864
  139      -16.4261069600      -0.0000007950     1.000000    0.00035441
  140      -16.4261077374      -0.0000007774     1.000000    0.00035025
  141      -16.4261084977      -0.0000007603     1.000000    0.00034618
  142      -16.4261092414      -0.0000007437     1.000000    0.00034218
  143      -16.4261099690      -0.0000007276     1.000000    0.00033827
  144      -16.4261106809      -0.0000007119     1.000000    0.00033442
  145      -16.4261113777      -0.0000006968     1.000000    0.00033065
  146      -16.4261120598      -0.0000006821     1.000000    0.00032696
  147      -16.4261127275      -0.0000006678     1.000000    0.00032333
  148      -16.4261133814      -0.0000006539     1.000000    0.00031977
  149      -16.4261140219      -0.0000006404     1.000000    0.00031627
  150      -16.4261146492      -0.0000006273     1.000000    0.00031284
  151      -16.4261152639      -0.0000006146     1.000000    0.00030948
  152      -16.4261158661      -0.0000006023     1.000000    0.00030617
  153      -16.4261164564      -0.0000005903     1.000000    0.00030293
  154      -16.4261170350      -0.0000005786     1.000000    0.00029974
  155      -16.4261176023      -0.0000005673     1.000000    0.00029662
  156      -16.4261181585      -0.0000005562     1.000000    0.00029355
  157      -16.4261187040      -0.0000005455     1.000000    0.00029053
  158      -16.4261192390      -0.0000005350     1.000000    0.00028757
  159      -16.4261197639      -0.0000005249     1.000000    0.00028466
  160      -16.4261202789      -0.0000005150     1.000000    0.00028180
  161      -16.4261207843      -0.0000005054     1.000000    0.00027899
  162      -16.4261212803      -0.0000004960     1.000000    0.00027624
  163      -16.4261217673      -0.0000004869     1.000000    0.00027353
  164      -16.4261222453      -0.0000004780     1.000000    0.00027086
  165      -16.4261227147      -0.0000004694     1.000000    0.00026825
  166      -16.4261231757      -0.0000004610     1.000000    0.00026567
  167      -16.4261236285      -0.0000004528     1.000000    0.00026315
  168      -16.4261240733      -0.0000004448     1.000000    0.00026066
  169      -16.4261245103      -0.0000004370     1.000000    0.00025822
  170      -16.4261249397      -0.0000004294     1.000000    0.00025582
  171      -16.4261253617      -0.0000004220     1.000000    0.00025346
  172      -16.4261257766      -0.0000004148     1.000000    0.00025113
  173      -16.4261261843      -0.0000004078     1.000000    0.00024885
  174      -16.4261265853      -0.0000004009     1.000000    0.00024661
  175      -16.4261269795      -0.0000003943     1.000000    0.00024440
  176      -16.4261273673      -0.0000003877     1.000000    0.00024223
  177      -16.4261277486      -0.0000003814     1.000000    0.00024009
  178      -16.4261281238      -0.0000003752     1.000000    0.00023799
  179      -16.4261284929      -0.0000003691     1.000000    0.00023592
  180      -16.4261288561      -0.0000003632     1.000000    0.00023389
  181      -16.4261292135      -0.0000003574     1.000000    0.00023189
  182      -16.4261295653      -0.0000003518     1.000000    0.00022992
  183      -16.4261299116      -0.0000003463     1.000000    0.00022798
  184      -16.4261302525      -0.0000003409     1.000000    0.00022608
  185      -16.4261305882      -0.0000003357     1.000000    0.00022420
  186      -16.4261309188      -0.0000003306     1.000000    0.00022236
  187      -16.4261312443      -0.0000003256     1.000000    0.00022054
  188      -16.4261315650      -0.0000003207     1.000000    0.00021875
  189      -16.4261318809      -0.0000003159     1.000000    0.00021699
  190      -16.4261321921      -0.0000003112     1.000000    0.00021525
  191      -16.4261324988      -0.0000003067     1.000000    0.00021355
  192      -16.4261328010      -0.0000003022     1.000000    0.00021187
  193      -16.4261330988      -0.0000002978     1.000000    0.00021021
  194      -16.4261333924      -0.0000002936     1.000000    0.00020858
  195      -16.4261336818      -0.0000002894     1.000000    0.00020698
  196      -16.4261339672      -0.0000002853     1.000000    0.00020540
  197      -16.4261342485      -0.0000002814     1.000000    0.00020384
  198      -16.4261345260      -0.0000002775     1.000000    0.00020231
  199      -16.4261347997      -0.0000002737     1.000000    0.00020080
  200      -16.4261350696      -0.0000002699     1.000000    0.00019932
  201      -16.4261353359      -0.0000002663     1.000000    0.00019785
  202      -16.4261355986      -0.0000002627     1.000000    0.00019641
  203      -16.4261358578      -0.0000002592     1.000000    0.00019499
  204      -16.4261361136      -0.0000002558     1.000000    0.00019359
  205      -16.4261363661      -0.0000002525     1.000000    0.00019221
  206      -16.4261366153      -0.0000002492     1.000000    0.00019085
  207      -16.4261368613      -0.0000002460     1.000000    0.00018951
  208      -16.4261371041      -0.0000002428     1.000000    0.00018819
  209      -16.4261373439      -0.0000002398     1.000000    0.00018689
  210      -16.4261375806      -0.0000002368     1.000000    0.00018561
  211      -16.4261378144      -0.0000002338     1.000000    0.00018435
  212      -16.4261380454      -0.0000002309     1.000000    0.00018310
  213      -16.4261382735      -0.0000002281     1.000000    0.00018187
  214      -16.4261384988      -0.0000002253     1.000000    0.00018066
  215      -16.4261387214      -0.0000002226     1.000000    0.00017947
  216      -16.4261389414      -0.0000002200     1.000000    0.00017830
  217      -16.4261391587      -0.0000002174     1.000000    0.00017714
  218      -16.4261393735      -0.0000002148     1.000000    0.00017600
  219      -16.4261395858      -0.0000002123     1.000000    0.00017487
  220      -16.4261397957      -0.0000002098     1.000000    0.00017376
  221      -16.4261400031      -0.0000002074     1.000000    0.00017267
  222      -16.4261402082      -0.0000002051     1.000000    0.00017159
  223      -16.4261404110      -0.0000002028     1.000000    0.00017052
  224      -16.4261406115      -0.0000002005     1.000000    0.00016947
  225      -16.4261408098      -0.0000001983     1.000000    0.00016844
  226      -16.4261410059      -0.0000001961     1.000000    0.00016742
  227      -16.4261411999      -0.0000001940     1.000000    0.00016641
  228      -16.4261413918      -0.0000001919     1.000000    0.00016542
  229      -16.4261415817      -0.0000001898     1.000000    0.00016444
  230      -16.4261417695      -0.0000001878     1.000000    0.00016348
  231      -16.4261419553      -0.0000001859     1.000000    0.00016253
  232      -16.4261421393      -0.0000001839     1.000000    0.00016159
  233      -16.4261423213      -0.0000001820     1.000000    0.00016066
  234      -16.4261425014      -0.0000001802     1.000000    0.00015975
  235      -16.4261426797      -0.0000001783     1.000000    0.00015885
  236      -16.4261428563      -0.0000001765     1.000000    0.00015796
  237      -16.4261430310      -0.0000001748     1.000000    0.00015708
  238      -16.4261432041      -0.0000001730     1.000000    0.00015622
  239      -16.4261433754      -0.0000001713     1.000000    0.00015537
  240      -16.4261435451      -0.0000001697     1.000000    0.00015453
  241      -16.4261437131      -0.0000001680     1.000000    0.00015370
  242      -16.4261438796      -0.0000001664     1.000000    0.00015288
  243      -16.4261440444      -0.0000001649     1.000000    0.00015207
  244      -16.4261442078      -0.0000001633     1.000000    0.00015127
  245      -16.4261443696      -0.0000001618     1.000000    0.00015048
  246      -16.4261445299      -0.0000001603     1.000000    0.00014971
  247      -16.4261446887      -0.0000001589     1.000000    0.00014894
  248      -16.4261448462      -0.0000001574     1.000000    0.00014819
  249      -16.4261450022      -0.0000001560     1.000000    0.00014744
  250      -16.4261451568      -0.0000001546     1.000000    0.00014671
  251      -16.4261453100      -0.0000001533     1.000000    0.00014598
  252      -16.4261454620      -0.0000001519     1.000000    0.00014526
  253      -16.4261456126      -0.0000001506     1.000000    0.00014456
  254      -16.4261457619      -0.0000001493     1.000000    0.00014386
  255      -16.4261459100      -0.0000001481     1.000000    0.00014317
  256      -16.4261460568      -0.0000001468     1.000000    0.00014249
  257      -16.4261462024      -0.0000001456     1.000000    0.00014182
  258      -16.4261463468      -0.0000001444     1.000000    0.00014116
  259      -16.4261464900      -0.0000001432     1.000000    0.00014051
  260      -16.4261466321      -0.0000001421     1.000000    0.00013987
  261      -16.4261467731      -0.0000001409     1.000000    0.00013923
  262      -16.4261469129      -0.0000001398     1.000000    0.00013860
  263      -16.4261470516      -0.0000001387     1.000000    0.00013798
  264      -16.4261471893      -0.0000001376     1.000000    0.00013737
  265      -16.4261473258      -0.0000001366     1.000000    0.00013677
  266      -16.4261474614      -0.0000001356     1.000000    0.00013618
  267      -16.4261475959      -0.0000001345     1.000000    0.00013559
  268      -16.4261477295      -0.0000001335     1.000000    0.00013501
  269      -16.4261478620      -0.0000001325     1.000000    0.00013444
  270      -16.4261479936      -0.0000001316     1.000000    0.00013387
  271      -16.4261481242      -0.0000001306     1.000000    0.00013332
  272      -16.4261482539      -0.0000001297     1.000000    0.00013277
  273      -16.4261483826      -0.0000001288     1.000000    0.00013223
  274      -16.4261485105      -0.0000001279     1.000000    0.00013169
  275      -16.4261486375      -0.0000001270     1.000000    0.00013116
  276      -16.4261487636      -0.0000001261     1.000000    0.00013064
  277      -16.4261488888      -0.0000001252     1.000000    0.00013013
  278      -16.4261490132      -0.0000001244     1.000000    0.00012962
  279      -16.4261491368      -0.0000001236     1.000000    0.00012912
  280      -16.4261492596      -0.0000001228     1.000000    0.00012862
  281      -16.4261493816      -0.0000001220     1.000000    0.00012814
  282      -16.4261495027      -0.0000001212     1.000000    0.00012765
  283      -16.4261496232      -0.0000001204     1.000000    0.00012718
  284      -16.4261497428      -0.0000001197     1.000000    0.00012671
  285      -16.4261498617      -0.0000001189     1.000000    0.00012625
  286      -16.4261499799      -0.0000001182     1.000000    0.00012579
  287      -16.4261500974      -0.0000001175     1.000000    0.00012534
  288      -16.4261502141      -0.0000001168     1.000000    0.00012490
  289      -16.4261503302      -0.0000001161     1.000000    0.00012446
  290      -16.4261504456      -0.0000001154     1.000000    0.00012403
  291      -16.4261505603      -0.0000001147     1.000000    0.00012360
  292      -16.4261506743      -0.0000001141     1.000000    0.00012318
  293      -16.4261507877      -0.0000001134     1.000000    0.00012276
  294      -16.4261509005      -0.0000001128     1.000000    0.00012235
  295      -16.4261510127      -0.0000001121     1.000000    0.00012195
  296      -16.4261511242      -0.0000001115     1.000000    0.00012155
  297      -16.4261512351      -0.0000001109     1.000000    0.00012116
  298      -16.4261513455      -0.0000001103     1.000000    0.00012077
  299      -16.4261514552      -0.0000001098     1.000000    0.00012038
  300      -16.4261515644      -0.0000001092     1.000000    0.00012001
  301      -16.4261516731      -0.0000001086     1.000000    0.00011963
  302      -16.4261517811      -0.0000001081     1.000000    0.00011927
  303      -16.4261518887      -0.0000001075     1.000000    0.00011890
  304      -16.4261519957      -0.0000001070     1.000000    0.00011855
  305      -16.4261521022      -0.0000001065     1.000000    0.00011819
  306      -16.4261522082      -0.0000001060     1.000000    0.00011785
  307      -16.4261523136      -0.0000001055     1.000000    0.00011750
  308      -16.4261524186      -0.0000001050     1.000000    0.00011717
  309      -16.4261525231      -0.0000001045     1.000000    0.00011683
  310      -16.4261526271      -0.0000001040     1.000000    0.00011650
  311      -16.4261527307      -0.0000001036     1.000000    0.00011618
  312      -16.4261528338      -0.0000001031     1.000000    0.00011586
  313      -16.4261529365      -0.0000001027     1.000000    0.00011555
  314      -16.4261530387      -0.0000001022     1.000000    0.00011524
  315      -16.4261531405      -0.0000001018     1.000000    0.00011493
  316      -16.4261532418      -0.0000001014     1.000000    0.00011463
  317      -16.4261533428      -0.0000001009     1.000000    0.00011433
  318      -16.4261534433      -0.0000001005     1.000000    0.00011404
  319      -16.4261535434      -0.0000001001     1.000000    0.00011375
  320      -16.4261536432      -0.0000000997     1.000000    0.00011347
  321      -16.4261537426      -0.0000000994     1.000000    0.00011319
  322      -16.4261538415      -0.0000000990     1.000000    0.00011291
  323      -16.4261539402      -0.0000000986     1.000000    0.00011264
  324      -16.4261540384      -0.0000000983     1.000000    0.00011237
  325      -16.4261541363      -0.0000000979     1.000000    0.00011211
  326      -16.4261542339      -0.0000000976     1.000000    0.00011185
  327      -16.4261543311      -0.0000000972     1.000000    0.00011159
  328      -16.4261544280      -0.0000000969     1.000000    0.00011134
  329      -16.4261545246      -0.0000000966     1.000000    0.00011110
  330      -16.4261546208      -0.0000000962     1.000000    0.00011085
  331      -16.4261547168      -0.0000000959     1.000000    0.00011061
  332      -16.4261548124      -0.0000000956     1.000000    0.00011038
  333      -16.4261549077      -0.0000000953     1.000000    0.00011014
  334      -16.4261550028      -0.0000000950     1.000000    0.00010992
  335      -16.4261550975      -0.0000000948     1.000000    0.00010969
  336      -16.4261551920      -0.0000000945     1.000000    0.00010947
  337      -16.4261552862      -0.0000000942     1.000000    0.00010925
  338      -16.4261553802      -0.0000000939     1.000000    0.00010904
  339      -16.4261554739      -0.0000000937     1.000000    0.00010883
  340      -16.4261555673      -0.0000000934     1.000000    0.00010862
  341      -16.4261556605      -0.0000000932     1.000000    0.00010842
  342      -16.4261557534      -0.0000000930     1.000000    0.00010822
  343      -16.4261558461      -0.0000000927     1.000000    0.00010802
  344      -16.4261559386      -0.0000000925     1.000000    0.00010783
  345      -16.4261560309      -0.0000000923     1.000000    0.00010764
  346      -16.4261561230      -0.0000000921     1.000000    0.00010746
  347      -16.4261562148      -0.0000000918     1.000000    0.00010727
  348      -16.4261563064      -0.0000000916     1.000000    0.00010709
  349      -16.4261563979      -0.0000000914     1.000000    0.00010692
  350      -16.4261564891      -0.0000000912     1.000000    0.00010675
  351      -16.4261565802      -0.0000000911     1.000000    0.00010658
  352      -16.4261566711      -0.0000000909     1.000000    0.00010641
  353      -16.4261567618      -0.0000000907     1.000000    0.00010625
  354      -16.4261568523      -0.0000000905     1.000000    0.00010609
  355      -16.4261569427      -0.0000000904     1.000000    0.00010593
  356      -16.4261570329      -0.0000000902     1.000000    0.00010578
  357      -16.4261571229      -0.0000000901     1.000000    0.00010563
  358      -16.4261572129      -0.0000000899     1.000000    0.00010548
  359      -16.4261573026      -0.0000000898     1.000000    0.00010534
  360      -16.4261573923      -0.0000000896     1.000000    0.00010520
  361      -16.4261574818      -0.0000000895     1.000000    0.00010506
  362      -16.4261575711      -0.0000000894     1.000000    0.00010493
  363      -16.4261576604      -0.0000000892     1.000000    0.00010479
  364      -16.4261577495      -0.0000000891     1.000000    0.00010467
  365      -16.4261578385      -0.0000000890     1.000000    0.00010454
  366      -16.4261579274      -0.0000000889     1.000000    0.00010442
  367      -16.4261580163      -0.0000000888     1.000000    0.00010430
  368      -16.4261581050      -0.0000000887     1.000000    0.00010418
  369      -16.4261581936      -0.0000000886     1.000000    0.00010407
  370      -16.4261582821      -0.0000000885     1.000000    0.00010396
  371      -16.4261583706      -0.0000000885     1.000000    0.00010385
  372      -16.4261584590      -0.0000000884     1.000000    0.00010375
  373      -16.4261585473      -0.0000000883     1.000000    0.00010364
  374      -16.4261586356      -0.0000000882     1.000000    0.00010355
  375      -16.4261587238      -0.0000000882     1.000000    0.00010345
  376      -16.4261588119      -0.0000000881     1.000000    0.00010336
  377      -16.4261589000      -0.0000000881     1.000000    0.00010326
  378      -16.4261589880      -0.0000000880     1.000000    0.00010318
  379      -16.4261590760      -0.0000000880     1.000000    0.00010309
  380      -16.4261591640      -0.0000000880     1.000000    0.00010301
  381      -16.4261592519      -0.0000000879     1.000000    0.00010293
  382      -16.4261593398      -0.0000000879     1.000000    0.00010285
  383      -16.4261594277      -0.0000000879     1.000000    0.00010278
  384      -16.4261595155      -0.0000000879     1.000000    0.00010271
  385      -16.4261596034      -0.0000000878     1.000000    0.00010264
  386      -16.4261596912      -0.0000000878     1.000000    0.00010257
  387      -16.4261597791      -0.0000000878     1.000000    0.00010251
  388      -16.4261598669      -0.0000000878     1.000000    0.00010245
  389      -16.4261599547      -0.0000000878     1.000000    0.00010239
  390      -16.4261600426      -0.0000000879     1.000000    0.00010234
  391      -16.4261601305      -0.0000000879     1.000000    0.00010228
  392      -16.4261602184      -0.0000000879     1.000000    0.00010223
  393      -16.4261603063      -0.0000000879     1.000000    0.00010219
  394      -16.4261603943      -0.0000000880     1.000000    0.00010214
  395      -16.4261604822      -0.0000000880     1.000000    0.00010210
  396      -16.4261605703      -0.0000000880     1.000000    0.00010206
  397      -16.4261606584      -0.0000000881     1.000000    0.00010202
  398      -16.4261607465      -0.0000000881     1.000000    0.00010199
  399      -16.4261608347      -0.0000000882     1.000000    0.00010196
  400      -16.4261609229      -0.0000000882     1.000000    0.00010193
  401      -16.4261610112      -0.0000000883     1.000000    0.00010190
  402      -16.4261610996      -0.0000000884     1.000000    0.00010188
  403      -16.4261611880      -0.0000000884     1.000000    0.00010186
  404      -16.4261612765      -0.0000000885     1.000000    0.00010184
  405      -16.4261613651      -0.0000000886     1.000000    0.00010182
  406      -16.4261614538      -0.0000000887     1.000000    0.00010181
  407      -16.4261615426      -0.0000000888     1.000000    0.00010180
  408      -16.4261616315      -0.0000000889     1.000000    0.00010179
  409      -16.4261617205      -0.0000000890     1.000000    0.00010178
  410      -16.4261618096      -0.0000000891     1.000000    0.00010178
  411      -16.4261618988      -0.0000000892     1.000000    0.00010178
  412      -16.4261619881      -0.0000000893     1.000000    0.00010178
  413      -16.4261620776      -0.0000000894     1.000000    0.00010178
  414      -16.4261621671      -0.0000000896     1.000000    0.00010179
  415      -16.4261622568      -0.0000000897     1.000000    0.00010180
  416      -16.4261623467      -0.0000000898     1.000000    0.00010181
  417      -16.4261624366      -0.0000000900     1.000000    0.00010182
  418      -16.4261625268      -0.0000000901     1.000000    0.00010184
  419      -16.4261626171      -0.0000000903     1.000000    0.00010186
  420      -16.4261627075      -0.0000000904     1.000000    0.00010188
  421      -16.4261627981      -0.0000000906     1.000000    0.00010190
  422      -16.4261628889      -0.0000000908     1.000000    0.00010193
  423      -16.4261629798      -0.0000000909     1.000000    0.00010196
  424      -16.4261630709      -0.0000000911     1.000000    0.00010199
  425      -16.4261631622      -0.0000000913     1.000000    0.00010202
  426      -16.4261632537      -0.0000000915     1.000000    0.00010206
  427      -16.4261633453      -0.0000000917     1.000000    0.00010209
  428      -16.4261634372      -0.0000000919     1.000000    0.00010214
  429      -16.4261635293      -0.0000000921     1.000000    0.00010218
  430      -16.4261636216      -0.0000000923     1.000000    0.00010222
  431      -16.4261637141      -0.0000000925     1.000000    0.00010227
  432      -16.4261638068      -0.0000000927     1.000000    0.00010232
  433      -16.4261638997      -0.0000000929     1.000000    0.00010238
  434      -16.4261639929      -0.0000000932     1.000000    0.00010243
  435      -16.4261640863      -0.0000000934     1.000000    0.00010249
  436      -16.4261641799      -0.0000000936     1.000000    0.00010255
  437      -16.4261642738      -0.0000000939     1.000000    0.00010261
  438      -16.4261643679      -0.0000000941     1.000000    0.00010268
  439      -16.4261644623      -0.0000000944     1.000000    0.00010274
  440      -16.4261645570      -0.0000000947     1.000000    0.00010281
  441      -16.4261646519      -0.0000000949     1.000000    0.00010289
  442      -16.4261647471      -0.0000000952     1.000000    0.00010296
  443      -16.4261648426      -0.0000000955     1.000000    0.00010304
  444      -16.4261649383      -0.0000000958     1.000000    0.00010312
  445      -16.4261650344      -0.0000000961     1.000000    0.00010320
  446      -16.4261651307      -0.0000000963     1.000000    0.00010329
  447      -16.4261652274      -0.0000000967     1.000000    0.00010337
  448      -16.4261653244      -0.0000000970     1.000000    0.00010346
  449      -16.4261654216      -0.0000000973     1.000000    0.00010355
  450      -16.4261655192      -0.0000000976     1.000000    0.00010365
  451      -16.4261656171      -0.0000000979     1.000000    0.00010375
  452      -16.4261657154      -0.0000000983     1.000000    0.00010385
  453      -16.4261658140      -0.0000000986     1.000000    0.00010395
  454      -16.4261659129      -0.0000000989     1.000000    0.00010405
  455      -16.4261660122      -0.0000000993     1.000000    0.00010416
  456      -16.4261661119      -0.0000000997     1.000000    0.00010427
  457      -16.4261662119      -0.0000001000     1.000000    0.00010438
  458      -16.4261663123      -0.0000001004     1.000000    0.00010449
  459      -16.4261664130      -0.0000001008     1.000000    0.00010461
  460      -16.4261665142      -0.0000001011     1.000000    0.00010473
  461      -16.4261666157      -0.0000001015     1.000000    0.00010485
  462      -16.4261667177      -0.0000001019     1.000000    0.00010498
  463      -16.4261668200      -0.0000001023     1.000000    0.00010510
  464      -16.4261669228      -0.0000001028     1.000000    0.00010523
  465      -16.4261670259      -0.0000001032     1.000000    0.00010536
  466      -16.4261671295      -0.0000001036     1.000000    0.00010550
  467      -16.4261672336      -0.0000001040     1.000000    0.00010563
  468      -16.4261673380      -0.0000001045     1.000000    0.00010577
  469      -16.4261674430      -0.0000001049     1.000000    0.00010591
  470      -16.4261675483      -0.0000001054     1.000000    0.00010606
  471      -16.4261676542      -0.0000001058     1.000000    0.00010620
  472      -16.4261677605      -0.0000001063     1.000000    0.00010635
  473      -16.4261678672      -0.0000001068     1.000000    0.00010651
  474      -16.4261679745      -0.0000001073     1.000000    0.00010666
  475      -16.4261680823      -0.0000001078     1.000000    0.00010682
  476      -16.4261681905      -0.0000001083     1.000000    0.00010698
  477      -16.4261682993      -0.0000001088     1.000000    0.00010714
  478      -16.4261684085      -0.0000001093     1.000000    0.00010730
  479      -16.4261685184      -0.0000001098     1.000000    0.00010747
  480      -16.4261686287      -0.0000001103     1.000000    0.00010764
  481      -16.4261687396      -0.0000001109     1.000000    0.00010781
  482      -16.4261688510      -0.0000001114     1.000000    0.00010799
  483      -16.4261689630      -0.0000001120     1.000000    0.00010816
  484      -16.4261690755      -0.0000001125     1.000000    0.00010834
  485      -16.4261691886      -0.0000001131     1.000000    0.00010853
  486      -16.4261693023      -0.0000001137     1.000000    0.00010871
  487      -16.4261694166      -0.0000001143     1.000000    0.00010890
  488      -16.4261695315      -0.0000001149     1.000000    0.00010909
  489      -16.4261696470      -0.0000001155     1.000000    0.00010928
  490      -16.4261697631      -0.0000001161     1.000000    0.00010948
  491      -16.4261698799      -0.0000001168     1.000000    0.00010968
  492      -16.4261699973      -0.0000001174     1.000000    0.00010988
  493      -16.4261701153      -0.0000001180     1.000000    0.00011008
  494      -16.4261702340      -0.0000001187     1.000000    0.00011029
  495      -16.4261703534      -0.0000001194     1.000000    0.00011050
  496      -16.4261704734      -0.0000001200     1.000000    0.00011071
  497      -16.4261705941      -0.0000001207     1.000000    0.00011092
  498      -16.4261707156      -0.0000001214     1.000000    0.00011114
  499      -16.4261708377      -0.0000001221     1.000000    0.00011136
  500      -16.4261709605      -0.0000001228     1.000000    0.00011158
  501      -16.4261710841      -0.0000001236     1.000000    0.00011181
  502      -16.4261712084      -0.0000001243     1.000000    0.00011203
  503      -16.4261713335      -0.0000001251     1.000000    0.00011226
  504      -16.4261714593      -0.0000001258     1.000000    0.00011250
  505      -16.4261715859      -0.0000001266     1.000000    0.00011273
  506      -16.4261717132      -0.0000001274     1.000000    0.00011297
  507      -16.4261718414      -0.0000001282     1.000000    0.00011321
  508      -16.4261719704      -0.0000001290     1.000000    0.00011346
  509      -16.4261721002      -0.0000001298     1.000000    0.00011371
  510      -16.4261722308      -0.0000001306     1.000000    0.00011396
  511      -16.4261723622      -0.0000001315     1.000000    0.00011421
  512      -16.4261724945      -0.0000001323     1.000000    0.00011446
  513      -16.4261726277      -0.0000001332     1.000000    0.00011472
  514      -16.4261727618      -0.0000001341     1.000000    0.00011498
  515      -16.4261728967      -0.0000001349     1.000000    0.00011525
  516      -16.4261730325      -0.0000001358     1.000000    0.00011551
  517      -16.4261731693      -0.0000001368     1.000000    0.00011578
  518      -16.4261733070      -0.0000001377     1.000000    0.00011605
  519      -16.4261734456      -0.0000001386     1.000000    0.00011633
  520      -16.4261735852      -0.0000001396     1.000000    0.00011661
  521      -16.4261737258      -0.0000001406     1.000000    0.00011689
  522      -16.4261738673      -0.0000001415     1.000000    0.00011717
  523      -16.4261740098      -0.0000001425     1.000000    0.00011746
  524      -16.4261741534      -0.0000001435     1.000000    0.00011775
  525      -16.4261742980      -0.0000001446     1.000000    0.00011804
  526      -16.4261744436      -0.0000001456     1.000000    0.00011834
  527      -16.4261745903      -0.0000001467     1.000000    0.00011863
  528      -16.4261747380      -0.0000001477     1.000000    0.00011894
  529      -16.4261748868      -0.0000001488     1.000000    0.00011924
  530      -16.4261750368      -0.0000001499     1.000000    0.00011955
  531      -16.4261751878      -0.0000001511     1.000000    0.00011986
  532      -16.4261753400      -0.0000001522     1.000000    0.00012017
  533      -16.4261754933      -0.0000001533     1.000000    0.00012048
  534      -16.4261756478      -0.0000001545     1.000000    0.00012080
  535      -16.4261758035      -0.0000001557     1.000000    0.00012113
  536      -16.4261759604      -0.0000001569     1.000000    0.00012145
  537      -16.4261761185      -0.0000001581     1.000000    0.00012178
  538      -16.4261762778      -0.0000001593     1.000000    0.00012211
  539      -16.4261764384      -0.0000001606     1.000000    0.00012244
  540      -16.4261766003      -0.0000001619     1.000000    0.00012278
  541      -16.4261767634      -0.0000001631     1.000000    0.00012312
  542      -16.4261769279      -0.0000001645     1.000000    0.00012346
  543      -16.4261770937      -0.0000001658     1.000000    0.00012380
  544      -16.4261772608      -0.0000001671     1.000000    0.00012415
  545      -16.4261774293      -0.0000001685     1.000000    0.00012450
  546      -16.4261775992      -0.0000001699     1.000000    0.00012486
  547      -16.4261777704      -0.0000001713     1.000000    0.00012522
  548      -16.4261779431      -0.0000001727     1.000000    0.00012558
  549      -16.4261781173      -0.0000001741     1.000000    0.00012594
  550      -16.4261782929      -0.0000001756     1.000000    0.00012631
  551      -16.4261784700      -0.0000001771     1.000000    0.00012667
  552      -16.4261786486      -0.0000001786     1.000000    0.00012705
  553      -16.4261788287      -0.0000001801     1.000000    0.00012742
  554      -16.4261790104      -0.0000001817     1.000000    0.00012780
  555      -16.4261791937      -0.0000001833     1.000000    0.00012818
  556      -16.4261793785      -0.0000001849     1.000000    0.00012857
  557      -16.4261795650      -0.0000001865     1.000000    0.00012895
  558      -16.4261797531      -0.0000001881     1.000000    0.00012934
  559      -16.4261799429      -0.0000001898     1.000000    0.00012974
  560      -16.4261801344      -0.0000001915     1.000000    0.00013013
  561      -16.4261803275      -0.0000001932     1.000000    0.00013053
  562      -16.4261805225      -0.0000001949     1.000000    0.00013093
  563      -16.4261807192      -0.0000001967     1.000000    0.00013134
  564      -16.4261809176      -0.0000001985     1.000000    0.00013175
  565      -16.4261811179      -0.0000002003     1.000000    0.00013216
  566      -16.4261813201      -0.0000002021     1.000000    0.00013257
  567      -16.4261815241      -0.0000002040     1.000000    0.00013299
  568      -16.4261817300      -0.0000002059     1.000000    0.00013341
  569      -16.4261819378      -0.0000002078     1.000000    0.00013383
  570      -16.4261821476      -0.0000002098     1.000000    0.00013426
  571      -16.4261823594      -0.0000002118     1.000000    0.00013469
  572      -16.4261825732      -0.0000002138     1.000000    0.00013512
  573      -16.4261827890      -0.0000002158     1.000000    0.00013555
  574      -16.4261830069      -0.0000002179     1.000000    0.00013599
  575      -16.4261832268      -0.0000002200     1.000000    0.00013643
  576      -16.4261834490      -0.0000002221     1.000000    0.00013687
  577      -16.4261836732      -0.0000002243     1.000000    0.00013732
  578      -16.4261838997      -0.0000002265     1.000000    0.00013777
  579      -16.4261841284      -0.0000002287     1.000000    0.00013822
  580      -16.4261843593      -0.0000002309     1.000000    0.00013867
  581      -16.4261845925      -0.0000002332     1.000000    0.00013913
  582      -16.4261848281      -0.0000002356     1.000000    0.00013959
  583      -16.4261850660      -0.0000002379     1.000000    0.00014005
  584      -16.4261853063      -0.0000002403     1.000000    0.00014051
  585      -16.4261855490      -0.0000002427     1.000000    0.00014098
  586      -16.4261857942      -0.0000002452     1.000000    0.00014145
  587      -16.4261860419      -0.0000002477     1.000000    0.00014192
  588      -16.4261862921      -0.0000002502     1.000000    0.00014240
  589      -16.4261865449      -0.0000002528     1.000000    0.00014288
  590      -16.4261868003      -0.0000002554     1.000000    0.00014336
  591      -16.4261870584      -0.0000002580     1.000000    0.00014384
  592      -16.4261873191      -0.0000002607     1.000000    0.00014433
  593      -16.4261875826      -0.0000002635     1.000000    0.00014481
  594      -16.4261878488      -0.0000002662     1.000000    0.00014530
  595      -16.4261881178      -0.0000002690     1.000000    0.00014579
  596      -16.4261883897      -0.0000002719     1.000000    0.00014629
  597      -16.4261886645      -0.0000002748     1.000000    0.00014679
  598      -16.4261889421      -0.0000002777     1.000000    0.00014728
  599      -16.4261892228      -0.0000002807     1.000000    0.00014779
  600      -16.4261895065      -0.0000002837     1.000000    0.00014829
  601      -16.4261897932      -0.0000002867     1.000000    0.00014879
  602      -16.4261900831      -0.0000002899     1.000000    0.00014930
  603      -16.4261903761      -0.0000002930     1.000000    0.00014981
  604      -16.4261906723      -0.0000002962     1.000000    0.00015032
  605      -16.4261909718      -0.0000002994     1.000000    0.00015083
  606      -16.4261912745      -0.0000003027     1.000000    0.00015135
  607      -16.4261915806      -0.0000003061     1.000000    0.00015186
  608      -16.4261918900      -0.0000003095     1.000000    0.00015238
  609      -16.4261922029      -0.0000003129     1.000000    0.00015290
  610      -16.4261925193      -0.0000003164     1.000000    0.00015342
  611      -16.4261928393      -0.0000003199     1.000000    0.00015394
  612      -16.4261931628      -0.0000003235     1.000000    0.00015446
  613      -16.4261934900      -0.0000003272     1.000000    0.00015499
  614      -16.4261938208      -0.0000003309     1.000000    0.00015551
  615      -16.4261941554      -0.0000003346     1.000000    0.00015604
  616      -16.4261944939      -0.0000003384     1.000000    0.00015657
  617      -16.4261948361      -0.0000003423     1.000000    0.00015709
  618      -16.4261951823      -0.0000003462     1.000000    0.00015762
  619      -16.4261955325      -0.0000003502     1.000000    0.00015815
  620      -16.4261958867      -0.0000003542     1.000000    0.00015868
  621      -16.4261962449      -0.0000003583     1.000000    0.00015921
  622      -16.4261966074      -0.0000003624     1.000000    0.00015974
  623      -16.4261969740      -0.0000003666     1.000000    0.00016027
  624      -16.4261973449      -0.0000003709     1.000000    0.00016081
  625      -16.4261977201      -0.0000003752     1.000000    0.00016134
  626      -16.4261980997      -0.0000003796     1.000000    0.00016187
  627      -16.4261984837      -0.0000003840     1.000000    0.00016240
  628      -16.4261988723      -0.0000003886     1.000000    0.00016293
  629      -16.4261992654      -0.0000003931     1.000000    0.00016346
  630      -16.4261996632      -0.0000003978     1.000000    0.00016398
  631      -16.4262000657      -0.0000004025     1.000000    0.00016451
  632      -16.4262004730      -0.0000004073     1.000000    0.00016504
  633      -16.4262008851      -0.0000004121     1.000000    0.00016557
  634      -16.4262013021      -0.0000004170     1.000000    0.00016609
  635      -16.4262017240      -0.0000004220     1.000000    0.00016661
  636      -16.4262021511      -0.0000004270     1.000000    0.00016713
  637      -16.4262025832      -0.0000004321     1.000000    0.00016765
  638      -16.4262030205      -0.0000004373     1.000000    0.00016817
  639      -16.4262034631      -0.0000004426     1.000000    0.00016868
  640      -16.4262039110      -0.0000004479     1.000000    0.00016920
  641      -16.4262043643      -0.0000004533     1.000000    0.00016971
  642      -16.4262048231      -0.0000004588     1.000000    0.00017021
  643      -16.4262052874      -0.0000004643     1.000000    0.00017072
  644      -16.4262057573      -0.0000004699     1.000000    0.00017122
  645      -16.4262062330      -0.0000004756     1.000000    0.00017172
  646      -16.4262067144      -0.0000004814     1.000000    0.00017221
  647      -16.4262072016      -0.0000004872     1.000000    0.00017270
  648      -16.4262076948      -0.0000004932     1.000000    0.00017319
  649      -16.4262081939      -0.0000004992     1.000000    0.00017367
  650      -16.4262086992      -0.0000005052     1.000000    0.00017414
  651      -16.4262092106      -0.0000005114     1.000000    0.00017462
  652      -16.4262097282      -0.0000005176     1.000000    0.00017508
  653      -16.4262102522      -0.0000005240     1.000000    0.00017554
  654      -16.4262107825      -0.0000005303     1.000000    0.00017600
  655      -16.4262113194      -0.0000005368     1.000000    0.00017645
  656      -16.4262118627      -0.0000005434     1.000000    0.00017689
  657      -16.4262124127      -0.0000005500     1.000000    0.00017733
  658      -16.4262129695      -0.0000005567     1.000000    0.00017776
  659      -16.4262135330      -0.0000005635     1.000000    0.00017818
  660      -16.4262141034      -0.0000005704     1.000000    0.00017860
  661      -16.4262146807      -0.0000005774     1.000000    0.00017901
  662      -16.4262152651      -0.0000005844     1.000000    0.00017941
  663      -16.4262158566      -0.0000005915     1.000000    0.00017980
  664      -16.4262164554      -0.0000005987     1.000000    0.00018018
  665      -16.4262170614      -0.0000006060     1.000000    0.00018055
  666      -16.4262176747      -0.0000006134     1.000000    0.00018092
  667      -16.4262182955      -0.0000006208     1.000000    0.00018127
  668      -16.4262189239      -0.0000006283     1.000000    0.00018162
  669      -16.4262195598      -0.0000006360     1.000000    0.00018195
  670      -16.4262202035      -0.0000006436     1.000000    0.00018227
  671      -16.4262208549      -0.0000006514     1.000000    0.00018258
  672      -16.4262215142      -0.0000006593     1.000000    0.00018288
  673      -16.4262221813      -0.0000006672     1.000000    0.00018317
  674      -16.4262228565      -0.0000006752     1.000000    0.00018345
  675      -16.4262235398      -0.0000006833     1.000000    0.00018371
  676      -16.4262242312      -0.0000006914     1.000000    0.00018438
  677      -16.4262249309      -0.0000006997     1.000000    0.00018559
  678      -16.4262256389      -0.0000007080     1.000000    0.00018681
  679      -16.4262263552      -0.0000007164     1.000000    0.00018802
  680      -16.4262270800      -0.0000007248     1.000000    0.00018924
  681      -16.4262278134      -0.0000007333     1.000000    0.00019047
  682      -16.4262285553      -0.0000007419     1.000000    0.00019169
  683      -16.4262293059      -0.0000007506     1.000000    0.00019292
  684      -16.4262300653      -0.0000007593     1.000000    0.00019416
  685      -16.4262308334      -0.0000007681     1.000000    0.00019540
  686      -16.4262316104      -0.0000007770     1.000000    0.00019673
  687      -16.4262323963      -0.0000007859     1.000000    0.00019807
  688      -16.4262331911      -0.0000007949     1.000000    0.00019940
  689      -16.4262339951      -0.0000008039     1.000000    0.00020074
  690      -16.4262348081      -0.0000008130     1.000000    0.00020208
  691      -16.4262356302      -0.0000008221     1.000000    0.00020343
  692      -16.4262364615      -0.0000008313     1.000000    0.00020477
  693      -16.4262373021      -0.0000008406     1.000000    0.00020612
  694      -16.4262381520      -0.0000008498     1.000000    0.00020747
  695      -16.4262390111      -0.0000008592     1.000000    0.00020882
  696      -16.4262398796      -0.0000008685     1.000000    0.00021016
  697      -16.4262407575      -0.0000008779     1.000000    0.00021151
  698      -16.4262416449      -0.0000008873     1.000000    0.00021286
  699      -16.4262425416      -0.0000008968     1.000000    0.00021421
  700      -16.4262434479      -0.0000009062     1.000000    0.00021555
  701      -16.4262443636      -0.0000009157     1.000000    0.00021689
  702      -16.4262452888      -0.0000009252     1.000000    0.00021823
  703      -16.4262462235      -0.0000009347     1.000000    0.00021957
  704      -16.4262471678      -0.0000009442     1.000000    0.00022090
  705      -16.4262481215      -0.0000009537     1.000000    0.00022223
  706      -16.4262490847      -0.0000009632     1.000000    0.00022355
  707      -16.4262500575      -0.0000009727     1.000000    0.00022487
  708      -16.4262510397      -0.0000009822     1.000000    0.00022618
  709      -16.4262520314      -0.0000009917     1.000000    0.00022749
  710      -16.4262530325      -0.0000010011     1.000000    0.00022878
  711      -16.4262540430      -0.0000010105     1.000000    0.00023007
  712      -16.4262550629      -0.0000010199     1.000000    0.00023135
  713      -16.4262560921      -0.0000010292     1.000000    0.00023263
  714      -16.4262571305      -0.0000010385     1.000000    0.00023389
  715      -16.4262581782      -0.0000010477     1.000000    0.00023514
  716      -16.4262592350      -0.0000010568     1.000000    0.00023638
  717      -16.4262603009      -0.0000010659     1.000000    0.00023761
  718      -16.4262613758      -0.0000010749     1.000000    0.00023882
  719      -16.4262624596      -0.0000010838     1.000000    0.00024002
  720      -16.4262635522      -0.0000010926     1.000000    0.00024121
  721      -16.4262646535      -0.0000011013     1.000000    0.00024238
  722      -16.4262657634      -0.0000011099     1.000000    0.00024354
  723      -16.4262668818      -0.0000011184     1.000000    0.00024468
  724      -16.4262680086      -0.0000011268     1.000000    0.00024580
  725      -16.4262691436      -0.0000011350     1.000000    0.00024690
  726      -16.4262702867      -0.0000011431     1.000000    0.00024799
  727      -16.4262714378      -0.0000011511     1.000000    0.00024905
  728      -16.4262725966      -0.0000011589     1.000000    0.00025010
  729      -16.4262737631      -0.0000011665     1.000000    0.00025112
  730      -16.4262749371      -0.0000011739     1.000000    0.00025212
  731      -16.4262761183      -0.0000011812     1.000000    0.00025309
  732      -16.4262773066      -0.0000011883     1.000000    0.00025405
  733      -16.4262785017      -0.0000011952     1.000000    0.00025497
  734      -16.4262797036      -0.0000012019     1.000000    0.00025587
  735      -16.4262809119      -0.0000012083     1.000000    0.00025675
  736      -16.4262821265      -0.0000012146     1.000000    0.00025760
  737      -16.4262833470      -0.0000012206     1.000000    0.00025841
  738      -16.4262845733      -0.0000012263     1.000000    0.00025920
  739      -16.4262858052      -0.0000012318     1.000000    0.00025996
  740      -16.4262870422      -0.0000012371     1.000000    0.00026069
  741      -16.4262882843      -0.0000012421     1.000000    0.00026139
  742      -16.4262895311      -0.0000012468     1.000000    0.00026205
  743      -16.4262907823      -0.0000012512     1.000000    0.00026268
  744      -16.4262920376      -0.0000012553     1.000000    0.00026328
  745      -16.4262932968      -0.0000012592     1.000000    0.00026384
  746      -16.4262945595      -0.0000012627     1.000000    0.00026437
  747      -16.4262958254      -0.0000012659     1.000000    0.00026485
  748      -16.4262970942      -0.0000012688     1.000000    0.00026531
  749      -16.4262983655      -0.0000012714     1.000000    0.00026572
  750      -16.4262996391      -0.0000012736     1.000000    0.00026609
  751      -16.4263009146      -0.0000012755     1.000000    0.00026643
  752      -16.4263021917      -0.0000012770     1.000000    0.00026672
  753      -16.4263034699      -0.0000012782     1.000000    0.00026698
  754      -16.4263047489      -0.0000012791     1.000000    0.00026719
  755      -16.4263060285      -0.0000012795     1.000000    0.00026736
  756      -16.4263073081      -0.0000012796     1.000000    0.00026749
  757      -16.4263085874      -0.0000012793     1.000000    0.00026758
  758      -16.4263098661      -0.0000012787     1.000000    0.00026762
  759      -16.4263111438      -0.0000012777     1.000000    0.00026762
  760      -16.4263124200      -0.0000012763     1.000000    0.00026757
  761      -16.4263136945      -0.0000012745     1.000000    0.00026748
  762      -16.4263149668      -0.0000012723     1.000000    0.00026734
  763      -16.4263162364      -0.0000012697     1.000000    0.00026716
  764      -16.4263175032      -0.0000012667     1.000000    0.00026693
  765      -16.4263187665      -0.0000012634     1.000000    0.00026666
  766      -16.4263200262      -0.0000012596     1.000000    0.00026634
  767      -16.4263212817      -0.0000012555     1.000000    0.00026597
  768      -16.4263225326      -0.0000012510     1.000000    0.00026555
  769      -16.4263237786      -0.0000012460     1.000000    0.00026509
  770      -16.4263250194      -0.0000012407     1.000000    0.00026459
  771      -16.4263262544      -0.0000012350     1.000000    0.00026403
  772      -16.4263274834      -0.0000012290     1.000000    0.00026343
  773      -16.4263287059      -0.0000012225     1.000000    0.00026278
  774      -16.4263299216      -0.0000012157     1.000000    0.00026209
  775      -16.4263311301      -0.0000012085     1.000000    0.00026135
  776      -16.4263323311      -0.0000012010     1.000000    0.00026056
  777      -16.4263335241      -0.0000011930     1.000000    0.00025973
  778      -16.4263347089      -0.0000011848     1.000000    0.00025885
  779      -16.4263358850      -0.0000011762     1.000000    0.00025792
  780      -16.4263370522      -0.0000011672     1.000000    0.00025695
  781      -16.4263382102      -0.0000011579     1.000000    0.00025594
  782      -16.4263393585      -0.0000011483     1.000000    0.00025488
  783      -16.4263404968      -0.0000011384     1.000000    0.00025378
  784      -16.4263416250      -0.0000011281     1.000000    0.00025264
  785      -16.4263427426      -0.0000011176     1.000000    0.00025145
  786      -16.4263438494      -0.0000011068     1.000000    0.00025022
  787      -16.4263449451      -0.0000010957     1.000000    0.00024895
  788      -16.4263460294      -0.0000010843     1.000000    0.00024764
  789      -16.4263471021      -0.0000010727     1.000000    0.00024629
  790      -16.4263481629      -0.0000010608     1.000000    0.00024490
  791      -16.4263492116      -0.0000010487     1.000000    0.00024347
  792      -16.4263502480      -0.0000010364     1.000000    0.00024201
  793      -16.4263512719      -0.0000010238     1.000000    0.00024051
  794      -16.4263522830      -0.0000010111     1.000000    0.00023897
  795      -16.4263532811      -0.0000009982     1.000000    0.00023740
  796      -16.4263542661      -0.0000009850     1.000000    0.00023579
  797      -16.4263552379      -0.0000009718     1.000000    0.00023415
  798      -16.4263561962      -0.0000009583     1.000000    0.00023248
  799      -16.4263571409      -0.0000009447     1.000000    0.00023078
  800      -16.4263580720      -0.0000009310     1.000000    0.00022905
  801      -16.4263589892      -0.0000009172     1.000000    0.00022729
  802      -16.4263598925      -0.0000009033     1.000000    0.00022550
  803      -16.4263607817      -0.0000008893     1.000000    0.00022369
  804      -16.4263616569      -0.0000008752     1.000000    0.00022185
  805      -16.4263625179      -0.0000008610     1.000000    0.00021999
  806      -16.4263633646      -0.0000008468     1.000000    0.00021810
  807      -16.4263641971      -0.0000008325     1.000000    0.00021619
  808      -16.4263650153      -0.0000008182     1.000000    0.00021426
  809      -16.4263658192      -0.0000008039     1.000000    0.00021231
  810      -16.4263666087      -0.0000007895     1.000000    0.00021034
  811      -16.4263673840      -0.0000007752     1.000000    0.00020835
  812      -16.4263681448      -0.0000007609     1.000000    0.00020635
  813      -16.4263688914      -0.0000007466     1.000000    0.00020433
  814      -16.4263696238      -0.0000007323     1.000000    0.00020230
  815      -16.4263703419      -0.0000007181     1.000000    0.00020025
  816      -16.4263710458      -0.0000007039     1.000000    0.00019819
  817      -16.4263717357      -0.0000006898     1.000000    0.00019612
  818      -16.4263724115      -0.0000006758     1.000000    0.00019405
  819      -16.4263730733      -0.0000006619     1.000000    0.00019196
  820      -16.4263737213      -0.0000006480     1.000000    0.00018986
  821      -16.4263743556      -0.0000006342     1.000000    0.00018776
  822      -16.4263749761      -0.0000006206     1.000000    0.00018565
  823      -16.4263755832      -0.0000006070     1.000000    0.00018354
  824      -16.4263761768      -0.0000005936     1.000000    0.00018142
  825      -16.4263767571      -0.0000005803     1.000000    0.00017931
  826      -16.4263773242      -0.0000005671     1.000000    0.00017718
  827      -16.4263778783      -0.0000005541     1.000000    0.00017506
  828      -16.4263784195      -0.0000005412     1.000000    0.00017294
  829      -16.4263789480      -0.0000005285     1.000000    0.00017082
  830      -16.4263794639      -0.0000005159     1.000000    0.00016871
  831      -16.4263799674      -0.0000005035     1.000000    0.00016659
  832      -16.4263804587      -0.0000004913     1.000000    0.00016448
  833      -16.4263809379      -0.0000004792     1.000000    0.00016237
  834      -16.4263814051      -0.0000004673     1.000000    0.00016027
  835      -16.4263818607      -0.0000004555     1.000000    0.00015818
  836      -16.4263823047      -0.0000004440     1.000000    0.00015609
  837      -16.4263827373      -0.0000004326     1.000000    0.00015401
  838      -16.4263831587      -0.0000004214     1.000000    0.00015194
  839      -16.4263835692      -0.0000004104     1.000000    0.00014987
  840      -16.4263839688      -0.0000003996     1.000000    0.00014782
  841      -16.4263843578      -0.0000003890     1.000000    0.00014578
  842      -16.4263847364      -0.0000003786     1.000000    0.00014375
  843      -16.4263851047      -0.0000003683     1.000000    0.00014173
  844      -16.4263854630      -0.0000003583     1.000000    0.00013972
  845      -16.4263858114      -0.0000003484     1.000000    0.00013772
  846      -16.4263861502      -0.0000003388     1.000000    0.00013574
  847      -16.4263864795      -0.0000003293     1.000000    0.00013377
  848      -16.4263867995      -0.0000003200     1.000000    0.00013182
  849      -16.4263871105      -0.0000003110     1.000000    0.00012987
  850      -16.4263874126      -0.0000003021     1.000000    0.00012795
  851      -16.4263877060      -0.0000002934     1.000000    0.00012604
  852      -16.4263879908      -0.0000002849     1.000000    0.00012414
  853      -16.4263882674      -0.0000002766     1.000000    0.00012227
  854      -16.4263885358      -0.0000002684     1.000000    0.00012040
  855      -16.4263887963      -0.0000002605     1.000000    0.00011856
  856      -16.4263890491      -0.0000002527     1.000000    0.00011673
  857      -16.4263892942      -0.0000002452     1.000000    0.00011492
  858      -16.4263895320      -0.0000002378     1.000000    0.00011313
  859      -16.4263897626      -0.0000002306     1.000000    0.00011135
  860      -16.4263899861      -0.0000002235     1.000000    0.00010959
  861      -16.4263902028      -0.0000002167     1.000000    0.00010786
  862      -16.4263904128      -0.0000002100     1.000000    0.00010613
  863      -16.4263906162      -0.0000002035     1.000000    0.00010443
  864      -16.4263908133      -0.0000001971     1.000000    0.00010275
  865      -16.4263910043      -0.0000001909     1.000000    0.00010108
  866      -16.4263911892      -0.0000001849     1.000000    0.00009944
  867      -16.4263913682      -0.0000001791     1.000000    0.00009781
  868      -16.4263915416      -0.0000001734     1.000000    0.00009620
  869      -16.4263917094      -0.0000001678     1.000000    0.00009461
  870      -16.4263918718      -0.0000001624     1.000000    0.00009304
  871      -16.4263920290      -0.0000001572     1.000000    0.00009149
  872      -16.4263921810      -0.0000001521     1.000000    0.00008996
  873      -16.4263923281      -0.0000001471     1.000000    0.00008845
  874      -16.4263924704      -0.0000001423     1.000000    0.00008696
  875      -16.4263926080      -0.0000001376     1.000000    0.00008549
  876      -16.4263927411      -0.0000001331     1.000000    0.00008403
  877      -16.4263928697      -0.0000001286     1.000000    0.00008260
  878      -16.4263929941      -0.0000001244     1.000000    0.00008118
  879      -16.4263931143      -0.0000001202     1.000000    0.00007979
  880      -16.4263932305      -0.0000001162     1.000000    0.00007841
  881      -16.4263933427      -0.0000001123     1.000000    0.00007705
  882      -16.4263934512      -0.0000001085     1.000000    0.00007571
  883      -16.4263935560      -0.0000001048     1.000000    0.00007439
  884      -16.4263936572      -0.0000001012     1.000000    0.00007309
  885      -16.4263937550      -0.0000000978     1.000000    0.00007181
  886      -16.4263938494      -0.0000000944     1.000000    0.00007054
  887      -16.4263939405      -0.0000000912     1.000000    0.00006930
  888      -16.4263940286      -0.0000000880     1.000000    0.00006807
  889      -16.4263941135      -0.0000000850     1.000000    0.00006686
  890      -16.4263941956      -0.0000000820     1.000000    0.00006567
  891      -16.4263942747      -0.0000000792     1.000000    0.00006450
  892      -16.4263943511      -0.0000000764     1.000000    0.00006334
  893      -16.4263944248      -0.0000000737     1.000000    0.00006221
  894      -16.4263944960      -0.0000000711     1.000000    0.00006109
  895      -16.4263945646      -0.0000000686     1.000000    0.00005998
  896      -16.4263946308      -0.0000000662     1.000000    0.00005890
  897      -16.4263946947      -0.0000000639     1.000000    0.00005783
  898      -16.4263947562      -0.0000000616     1.000000    0.00005678
  899      -16.4263948156      -0.0000000594     1.000000    0.00005574
  900      -16.4263948729      -0.0000000573     1.000000    0.00005472
  901      -16.4263949281      -0.0000000552     1.000000    0.00005372
  902      -16.4263949814      -0.0000000532     1.000000    0.00005274
  903      -16.4263950327      -0.0000000513     1.000000    0.00005177
  904      -16.4263950822      -0.0000000495     1.000000    0.00005081
  905      -16.4263951299      -0.0000000477     1.000000    0.00004987
  906      -16.4263951759      -0.0000000460     1.000000    0.00004895
  907      -16.4263952202      -0.0000000443     1.000000    0.00004804
  908      -16.4263952628      -0.0000000427     1.000000    0.00004715
  909      -16.4263953040      -0.0000000411     1.000000    0.00004627
  910      -16.4263953436      -0.0000000396     1.000000    0.00004541
  911      -16.4263953818      -0.0000000382     1.000000    0.00004456
  912      -16.4263954186      -0.0000000368     1.000000    0.00004373
  913      -16.4263954540      -0.0000000354     1.000000    0.00004291
  914      -16.4263954881      -0.0000000341     1.000000    0.00004210
  915      -16.4263955210      -0.0000000329     1.000000    0.00004131
  916      -16.4263955527      -0.0000000317     1.000000    0.00004053
  917      -16.4263955832      -0.0000000305     1.000000    0.00003977
  918      -16.4263956125      -0.0000000294     1.000000    0.00003902
  919      -16.4263956408      -0.0000000283     1.000000    0.00003828
  920      -16.4263956680      -0.0000000272     1.000000    0.00003755
  921      -16.4263956942      -0.0000000262     1.000000    0.00003684
  922      -16.4263957194      -0.0000000252     1.000000    0.00003614
  923      -16.4263957437      -0.0000000243     1.000000    0.00003545
  924      -16.4263957671      -0.0000000234     1.000000    0.00003478
  925      -16.4263957896      -0.0000000225     1.000000    0.00003411
  926      -16.4263958113      -0.0000000217     1.000000    0.00003346
  927      -16.4263958321      -0.0000000208     1.000000    0.00003282
  928      -16.4263958522      -0.0000000201     1.000000    0.00003219
  929      -16.4263958715      -0.0000000193     1.000000    0.00003158
  930      -16.4263958900      -0.0000000186     1.000000    0.00003097
  931      -16.4263959079      -0.0000000179     1.000000    0.00003037
  932      -16.4263959251      -0.0000000172     1.000000    0.00002979
  933      -16.4263959417      -0.0000000165     1.000000    0.00002922
  934      -16.4263959576      -0.0000000159     1.000000    0.00002865
  935      -16.4263959729      -0.0000000153     1.000000    0.00002810
  936      -16.4263959876      -0.0000000147     1.000000    0.00002756
  937      -16.4263960018      -0.0000000142     1.000000    0.00002702
  938      -16.4263960154      -0.0000000136     1.000000    0.00002650
  939      -16.4263960285      -0.0000000131     1.000000    0.00002599
  940      -16.4263960412      -0.0000000126     1.000000    0.00002548
  941      -16.4263960533      -0.0000000121     1.000000    0.00002499
  942      -16.4263960649      -0.0000000117     1.000000    0.00002450
  943      -16.4263960762      -0.0000000112     1.000000    0.00002402
  944      -16.4263960870      -0.0000000108     1.000000    0.00002356
  945      -16.4263960973      -0.0000000104     1.000000    0.00002310
  946      -16.4263961073      -0.0000000100     1.000000    0.00002265
  947      -16.4263961169      -0.0000000096     1.000000    0.00002220
  948      -16.4263961261      -0.0000000092     1.000000    0.00002177
  949      -16.4263961350      -0.0000000089     1.000000    0.00002134
  950      -16.4263961435      -0.0000000085     1.000000    0.00002093
  951      -16.4263961517      -0.0000000082     1.000000    0.00002052
  952      -16.4263961596      -0.0000000079     1.000000    0.00002011
  953      -16.4263961672      -0.0000000076     1.000000    0.00001972
  954      -16.4263961745      -0.0000000073     1.000000    0.00001933
  955      -16.4263961815      -0.0000000070     1.000000    0.00001895
  956      -16.4263961882      -0.0000000067     1.000000    0.00001858
  957      -16.4263961947      -0.0000000065     1.000000    0.00001822
  958      -16.4263962009      -0.0000000062     1.000000    0.00001786
  959      -16.4263962069      -0.0000000060     1.000000    0.00001751
  960      -16.4263962126      -0.0000000057     1.000000    0.00001716
  961      -16.4263962181      -0.0000000055     1.000000    0.00001682
  962      -16.4263962234      -0.0000000053     1.000000    0.00001649
  963      -16.4263962285      -0.0000000051     1.000000    0.00001616
  964      -16.4263962335      -0.0000000049     1.000000    0.00001585
  965      -16.4263962382      -0.0000000047     1.000000    0.00001553
  966      -16.4263962427      -0.0000000045     1.000000    0.00001522
  967      -16.4263962470      -0.0000000044     1.000000    0.00001492
  968      -16.4263962512      -0.0000000042     1.000000    0.00001463
  969      -16.4263962552      -0.0000000040     1.000000    0.00001434
  970      -16.4263962591      -0.0000000039     1.000000    0.00001405
  971      -16.4263962628      -0.0000000037     1.000000    0.00001378
  972      -16.4263962664      -0.0000000036     1.000000    0.00001350
  973      -16.4263962698      -0.0000000034     1.000000    0.00001323
  974      -16.4263962731      -0.0000000033     1.000000    0.00001297
  975      -16.4263962763      -0.0000000032     1.000000    0.00001271
  976      -16.4263962793      -0.0000000030     1.000000    0.00001246
  977      -16.4263962822      -0.0000000029     1.000000    0.00001221
  978      -16.4263962850      -0.0000000028     1.000000    0.00001197
  979      -16.4263962877      -0.0000000027     1.000000    0.00001173
  980      -16.4263962903      -0.0000000026     1.000000    0.00001150
  981      -16.4263962928      -0.0000000025     1.000000    0.00001127
  982      -16.4263962952      -0.0000000024     1.000000    0.00001105
  983      -16.4263962975      -0.0000000023     1.000000    0.00001082
  984      -16.4263962997      -0.0000000022     1.000000    0.00001061
  985      -16.4263963018      -0.0000000021     1.000000    0.00001040
  986      -16.4263963038      -0.0000000020     1.000000    0.00001019
  987      -16.4263963058      -0.0000000020     1.000000    0.00000999
  988      -16.4263963076      -0.0000000019     1.000000    0.00000979
  989      -16.4263963095      -0.0000000018     1.000000    0.00000959
  990      -16.4263963112      -0.0000000017     1.000000    0.00000940
  991      -16.4263963128      -0.0000000017     1.000000    0.00000921
  992      -16.4263963144      -0.0000000016     1.000000    0.00000903
  993      -16.4263963160      -0.0000000015     1.000000    0.00000885
  994      -16.4263963175      -0.0000000015     1.000000    0.00000867
  995      -16.4263963189      -0.0000000014     1.000000    0.00000850
  996      -16.4263963202      -0.0000000014     1.000000    0.00000833
  997      -16.4263963215      -0.0000000013     1.000000    0.00000816
  998      -16.4263963228      -0.0000000013     1.000000    0.00000800
  999      -16.4263963240      -0.0000000012     1.000000    0.00000784
 1000      -16.4263963251      -0.0000000012     1.000000    0.00000768

Total Energy:                      -16.4263963251 H         -446.9850 eV
Extrapolated to 0:                 -16.3687972465 H         -445.4176 eV

----------------------------------------------------------------------------------
 Solving CP-REKS equation for  1 state vector...
----------------------------------------------------------------------------------
  CG solver: Constructing Y initial guess
  CG solver: Iteration    1    eps =    0.027675423572
  CG solver: Iteration    2    eps =    0.005660711011
  CG solver: Iteration    3    eps =    0.004451685329
  CG solver: Iteration    4    eps =    0.007342236129
  CG solver: Iteration    5    eps =    0.007249714240
  CG solver: Iteration    6    eps =    0.001515481191
  CG solver: Iteration    7    eps =    0.000518584244
  CG solver: Iteration    8    eps =    0.000133097620
  CG solver: Iteration    9    eps =    0.000023618319
  CG solver: Iteration   10    eps =    0.000003157643
  CG solver: Iteration   11    eps =    0.000000287725
  CG solver: Iteration   12    eps =    0.000000046510
  CG solver: Iteration   13    eps =    0.000000006735
  Convergence reached in CG solver after   13 iterations
  CG solver: Calculating converged R, Z, Q2 matrix
----------------------------------------------------------------------------------

----------------------------------------------------------------------------------
 Solving CP-REKS equation for SI between  1 and  2 state vectors...
----------------------------------------------------------------------------------
  CG solver: Constructing Y initial guess
  CG solver: Iteration    1    eps =    0.000917374646
  CG solver: Iteration    2    eps =    0.000478886658
  CG solver: Iteration    3    eps =    0.000202523563
  CG solver: Iteration    4    eps =    0.000162692553
  CG solver: Iteration    5    eps =    0.000406703115
  CG solver: Iteration    6    eps =    0.000081568482
  CG solver: Iteration    7    eps =    0.000021254881
  CG solver: Iteration    8    eps =    0.000016161217
  CG solver: Iteration    9    eps =    0.000001536661
  CG solver: Iteration   10    eps =    0.000000185722
  CG solver: Iteration   11    eps =    0.000000013826
  CG solver: Iteration   12    eps =    0.000000001675
  Convergence reached in CG solver after   12 iterations
  CG solver: Calculating converged R, Z, Q2 matrix
----------------------------------------------------------------------------------

--------------------------------------------------
 Gradient Information
--------------------------------------------------
           1 st state (SSR)
     0.00000000     0.00000000     0.00000000
     0.00000000     0.00000000     0.00000000
     0.00000000     0.00000000     0.00000000
     0.00000000     0.00000000     0.00000000
     0.00000000     0.00000000     0.00000000
     0.00000000     0.00000000     0.00000000
     0.00000000     0.00000000     0.00000000
     0.00000000     0.00000000     0.00000000
     0.00000000     0.00000000     0.00000000
     0.00000000     0.00000000     0.00000000
     0.00000000     0.00000000     0.00000000
     0.00000000     0.00000000     0.00000000
     0.00000000     0.00000000     0.00000000
     0.00000000     0.00000000     0.00000000

           2 st state (SSR)
     0.00000000     0.00000000     0.00000000
     0.00000000     0.00000000     0.00000000
     0.00000000     0.00000000     0.00000000
     0.00000000     0.00000000     0.00000000
     0.00000000     0.00000000     0.00000000
     0.00000000     0.00000000     0.00000000
     0.00000000     0.00000000     0.00000000
     0.00000000     0.00000000     0.00000000
     0.00000000     0.00000000     0.00000000
     0.00000000     0.00000000     0.00000000
     0.00000000     0.00000000     0.00000000
     0.00000000     0.00000000     0.00000000
     0.00000000     0.00000000     0.00000000
     0.00000000     0.00000000     0.00000000
--------------------------------------------------
 Coupling Information
--------------------------------------------------
 between  1 and  2 states
--------------------------------------------------
 g vector - difference gradient
    -0.21497224    -0.10142059    -0.16457181
    -0.02456185    -0.05263767    -0.30997487
     0.07873099     0.08893801     0.11257592
    -0.00556442    -0.03550940    -0.13493000
    -0.00571599     0.05419768     0.13860465
     0.11656099     0.22798997     0.42442694
     0.02943252    -0.28188431    -0.31480699
    -0.09231441     0.07425704    -0.08972072
     0.05000031    -0.03783205     0.04074837
     0.23236180     0.23705783     0.28986136
    -0.02647561     0.02949569     0.05247171
    -0.17371995    -0.21272399    -0.05546335
     0.00505514     0.04518261     0.05659511
     0.03118273    -0.03511081    -0.04581632

 h vector - derivative coupling
     0.00172604     0.00648267    -0.00379700
    -0.00652756    -0.01139907     0.00118239
    -0.00258122    -0.00075268    -0.00222921
     0.00211736     0.00102479     0.00156373
    -0.00075812     0.00066908    -0.00303881
     0.01764896     0.00056859     0.01981667
    -0.01041864    -0.00882850    -0.00923842
    -0.00272124     0.00613352    -0.00418324
     0.00202957     0.00051358     0.00059746
     0.00513146     0.01078533    -0.00005174
    -0.00143383    -0.00003980    -0.00004683
    -0.00484723    -0.00478423    -0.00094787
     0.00064456    -0.00087779     0.00074952
    -0.00001012     0.00050452    -0.00037665

 G vector - GDV
     0.00000000     0.00000000     0.00000000
     0.00000000     0.00000000     0.00000000
     0.00000000     0.00000000     0.00000000
     0.00000000     0.00000000     0.00000000
     0.00000000     0.00000000     0.00000000
     0.00000000     0.00000000     0.00000000
     0.00000000     0.00000000     0.00000000
     0.00000000     0.00000000     0.00000000
     0.00000000     0.00000000     0.00000000
     0.00000000     0.00000000     0.00000000
     0.00000000     0.00000000     0.00000000
     0.00000000     0.00000000     0.00000000
     0.00000000     0.00000000     0.00000000
     0.00000000     0.00000000     0.00000000

 H vector - DCV - non-adiabatic coupling
     0.00000000     0.00000000     0.00000000
     0.00000000     0.00000000     0.00000000
     0.00000000     0.00000000     0.00000000
     0.00000000     0.00000000     0.00000000
     0.00000000     0.00000000     0.00000000
     0.00000000     0.00000000     0.00000000
     0.00000000     0.00000000     0.00000000
     0.00000000     0.00000000     0.00000000
     0.00000000     0.00000000     0.00000000
     0.00000000     0.00000000     0.00000000
     0.00000000     0.00000000     0.00000000
     0.00000000     0.00000000     0.00000000
     0.00000000     0.00000000     0.00000000
     0.00000000     0.00000000     0.00000000
--------------------------------------------------

WARNING!
-> SCC is NOT converged, maximal SCC iterations exceeded

--------------------------------------------------------------------------------
DFTB+ running times                          cpu [s]             wall clock [s]
--------------------------------------------------------------------------------
SCC                                    +     1.57  ( 81.7%)      1.57  ( 81.4%)
      Sparse to dense                        0.07  (  3.8%)      0.07  (  3.6%)
      Dense to sparse                        0.26  ( 13.4%)      0.25  ( 13.1%)
      Range separated Hamiltonian            0.13  (  6.6%)      0.13  (  6.7%)
  Density matrix creation                    0.16  (  8.2%)      0.15  (  7.8%)
  Force calculation                          0.35  ( 18.1%)      0.35  ( 18.0%)
--------------------------------------------------------------------------------
Missing                                +     0.35  ( 18.3%)      0.36  ( 18.6%)
Total                                  =     1.92  (100.0%)      1.93  (100.0%)
--------------------------------------------------------------------------------
