 Fermi distribution function

Calculation with static geometry


********************************************************************************
 iSCC Total electronic   Diff electronic      SCC error    
   11   -0.54181320E+01   -0.50626170E-13    0.59067995E-08
********************************************************************************

 Total charge:     1.00000000

 Atomic gross charges (e)
 Atom           Charge
    1       0.31808676
    2      -0.20624489
    3       0.14290381
    4       0.28973484
    5       0.31592073
    6       0.13959876

Nr. of electrons (up):     12.00000000
Atom populations (up)
 Atom       Population
    1       3.68191324
    2       5.20624489
    3       0.85709619
    4       0.71026516
    5       0.68407927
    6       0.86040124

l-shell populations (up)
 Atom Sh.   l       Population
    1   1   0       1.28086596
    1   2   1       2.40104729
    2   1   0       1.39485095
    2   2   1       3.81139395
    3   1   0       0.85709619
    4   1   0       0.71026516
    5   1   0       0.68407927
    6   1   0       0.86040124

Orbital populations (up)
 Atom Sh.   l   m       Population  Label
    1   1   0   0       1.28086596  s
    1   2   1  -1       0.56191209  p_y
    1   2   1   0       0.90772660  p_z
    1   2   1   1       0.93140859  p_x
    2   1   0   0       1.39485095  s
    2   2   1  -1       1.35589397  p_y
    2   2   1   0       1.09235982  p_z
    2   2   1   1       1.36314016  p_x
    3   1   0   0       0.85709619  s
    4   1   0   0       0.71026516  s
    5   1   0   0       0.68407927  s
    6   1   0   0       0.86040124  s

Fermi level:                        -0.4776296327 H          -12.9970 eV
Band energy:                        -8.8967128866 H         -242.0919 eV
TS:                                  0.0000000000 H            0.0000 eV
Band free energy (E-TS):            -8.8967128866 H         -242.0919 eV
Extrapolated E(0K):                 -8.8967128866 H         -242.0919 eV
Input / Output electrons (q):     12.0000000000     12.0000000000

Energy H0:                          -5.5512512923 H         -151.0572 eV
Energy SCC:                          0.1331193239 H            3.6224 eV
Total Electronic energy:            -5.4181319685 H         -147.4349 eV
Repulsive energy:                    0.2244059336 H            6.1064 eV
Total energy:                       -5.1937260349 H         -141.3285 eV
Extrapolated to 0:                  -5.1937260349 H         -141.3285 eV
Total Mermin free energy:           -5.1937260349 H         -141.3285 eV
Force related energy:               -5.1937260349 H         -141.3285 eV

SCC converged

Excitation Energy:                   0.0861940335 H            2.3455 eV

Total Forces
    1      0.007742109858     -0.000956946351     -0.055384751302
    2     -0.011107001456     -0.012163895365      0.046078412782
    3     -0.009178289744     -0.011676528276      0.001257838401
    4     -0.008083846849      0.015277307602      0.003377133884
    5      0.015183543040     -0.006133515617     -0.000286506671
    6      0.005443485152      0.015653578007      0.004957872905

Maximal derivative component:        0.553848E-01 au


