|===============================================================================
|
|  DFTB+ release 20.1
|
|  Copyright (C) 2006 - 2020  DFTB+ developers group
|
|===============================================================================
|
|  When publishing results obtained with DFTB+, please cite the following
|  reference:
|
|  * DFTB+, a software package for efficient approximate density functional
|    theory based atomistic simulations, J. Chem. Phys. 152, 124101 (2020).
|    [doi: 10.1063/1.5143190]
|
|  You should also cite additional publications crediting the parametrization
|  data you use. Please consult the documentation of the SK-files for the
|  references.
|
|===============================================================================

Reading input file 'dftb_in.hsd'
Parser version: 8

--------------------------------------------------------------------------------
Reading SK-files:
Done.


Processed input in HSD format written to 'dftb_pin.hsd'

Starting initialization...
--------------------------------------------------------------------------------
OpenMP threads:              1
Chosen random seed:          507937516
Mode:                        Static calculation
Self consistent charges:     Yes
SCC-tolerance:                 0.100000E-05
Max. scc iterations:                   1000
Shell resolved Hubbard:      No
Spin polarisation:           No
Nr. of up electrons:             6.000000
Nr. of down electrons:           6.000000
Periodic boundaries:         No
Electronic solver:           Relatively robust
Maximal SCC-cycles:                    1000
Initial charges:             Set automatically (system chrg:   0.100E+01)
Included shells:             C:  s, p
                             N:  s, p
                             H:  s
Spin coupling constants:     C   1(s)-1(s):  -0.455900E-01
                             C   1(s)-2(p):  -0.293000E-01
                             C   2(p)-1(s):  -0.293000E-01
                             C   2(p)-2(p):  -0.275500E-01
                             N   1(s)-1(s):  -0.468700E-01
                             N   1(s)-2(p):  -0.317000E-01
                             N   2(p)-1(s):  -0.317000E-01
                             N   2(p)-2(p):  -0.307200E-01
                             H   1(s)-1(s):  -0.792500E-01
Range separated hybrid:      Yes
  Screening parameter omega:   0.300000E+00
  Range separated algorithm:   MatrixBased
Extra options:
                             Mulliken analysis
                             Force calculation
Force type                   original
                             Eigenvector printing


REKS Calcuation:             Yes
SSR(2,2) Calcuation:         Yes
Energy Functional:           (PPS+OSS)/2
Number of Core Orbitals:                  5
Number of Active Orbitals:                2
Number of Basis:                         12
Number of States:                         2
State-Averaging Weight:          0.500000
                                 0.500000
State of Interest:                        1
Initial Guess:               Diagonalize H0 matrix
Newton-Raphson for FON opt:  Yes
NR max. Iterations:                      50
Level Shifting:              Yes
Shift Value:                     0.300000
W Scale Factor:              C  =    3.000000
                             N  =    3.000000
                             H  =    3.000000
Transition Dipole:           No
Gradient of Microstate:      No
CP-REKS Solver:              Preconditioned Conjugate-Gradient
CG max. Iterations:                     100
CG Tolerance:                  0.100000E-07
Memory for A and Hxc:        Direct Updating Without Saving
Non-Adiabatic Coupling:      Yes

--------------------------------------------------------------------------------

***  Geometry step: 0

  iSCC       reks energy        Diff energy         x_a       SCC error   
    1       -6.2618545521       0.0000000000     0.998973    1.17846781
    2       -6.2753999259      -0.0135453738     0.999605    0.10829650
    3       -6.2793431924      -0.0039432665     0.999787    0.04988779
    4       -6.2811500676      -0.0018068752     0.999860    0.02523574
    5       -6.2821561686      -0.0010061011     0.999895    0.01353419
    6       -6.2827979072      -0.0006417386     0.999914    0.00728061
    7       -6.2832406345      -0.0004427272     0.999925    0.00617129
    8       -6.2835568560      -0.0003162216     0.999932    0.00538873
    9       -6.2837851748      -0.0002283188     0.999936    0.00462472
   10       -6.2839499989      -0.0001648241     0.999939    0.00402367
   11       -6.2840684487      -0.0001184498     0.999942    0.00348291
   12       -6.2841530811      -0.0000846323     0.999943    0.00298596
   13       -6.2842132095      -0.0000601284     0.999944    0.00254056
   14       -6.2842557163      -0.0000425068     0.999945    0.00222435
   15       -6.2842856413      -0.0000299250     0.999946    0.00193524
   16       -6.2843066381      -0.0000209968     0.999946    0.00167273
   17       -6.2843213315      -0.0000146934     0.999946    0.00143799
   18       -6.2843315924      -0.0000102609     0.999947    0.00123059
   19       -6.2843387463      -0.0000071539     0.999947    0.00104904
   20       -6.2843437277      -0.0000049813     0.999947    0.00089136
   21       -6.2843471927      -0.0000034651     0.999947    0.00075525
   22       -6.2843496011      -0.0000024084     0.999947    0.00063837
   23       -6.2843512739      -0.0000016728     0.999947    0.00053846
   24       -6.2843524352      -0.0000011613     0.999947    0.00045337
   25       -6.2843532410      -0.0000008058     0.999947    0.00038112
   26       -6.2843537999      -0.0000005589     0.999947    0.00031995
   27       -6.2843541875      -0.0000003876     0.999947    0.00026828
   28       -6.2843544562      -0.0000002687     0.999947    0.00022473
   29       -6.2843546424      -0.0000001862     0.999947    0.00018807
   30       -6.2843547714      -0.0000001290     0.999947    0.00015727
   31       -6.2843548608      -0.0000000894     0.999947    0.00013143
   32       -6.2843549227      -0.0000000619     0.999947    0.00010977
   33       -6.2843549655      -0.0000000429     0.999947    0.00009163
   34       -6.2843549952      -0.0000000297     0.999947    0.00007645
   35       -6.2843550158      -0.0000000206     0.999947    0.00006376
   36       -6.2843550300      -0.0000000142     0.999947    0.00005316
   37       -6.2843550399      -0.0000000099     0.999947    0.00004431
   38       -6.2843550467      -0.0000000068     0.999947    0.00003692
   39       -6.2843550514      -0.0000000047     0.999947    0.00003076
   40       -6.2843550547      -0.0000000033     0.999947    0.00002562
   41       -6.2843550570      -0.0000000023     0.999947    0.00002134
   42       -6.2843550585      -0.0000000016     0.999947    0.00001777
   43       -6.2843550596      -0.0000000011     0.999947    0.00001479
   44       -6.2843550604      -0.0000000008     0.999947    0.00001232
   45       -6.2843550609      -0.0000000005     0.999947    0.00001025
   46       -6.2843550612      -0.0000000004     0.999947    0.00000853
   47       -6.2843550615      -0.0000000002     0.999947    0.00000710
   48       -6.2843550617      -0.0000000002     0.999947    0.00000591
   49       -6.2843550618      -0.0000000001     0.999947    0.00000492
   50       -6.2843550619      -0.0000000001     0.999947    0.00000409
   51       -6.2843550619      -0.0000000001     0.999947    0.00000341
   52       -6.2843550620      -0.0000000000     0.999947    0.00000283
   53       -6.2843550620      -0.0000000000     0.999947    0.00000236
   54       -6.2843550620      -0.0000000000     0.999947    0.00000196
   55       -6.2843550620      -0.0000000000     0.999947    0.00000163
   56       -6.2843550620      -0.0000000000     0.999947    0.00000136
   57       -6.2843550620      -0.0000000000     0.999947    0.00000113
   58       -6.2843550620      -0.0000000000     0.999947    0.00000094
  
--------------------------------------------------
 Final SA-REKS(2,2) energy:      -6.28435506
  
 State     Energy      FON(1)    FON(2)   Spin
  PPS   -6.40987765   1.999894  0.000106  0.00
  OSS   -6.15883247   1.000000  1.000000  0.00
 Trip   -6.24005133   1.000000  1.000000  1.00
--------------------------------------------------

 Lagrangian Wab:   0.00652600  0.00652574

--------------------------------------------------
 SSR: 2SI-2SA-REKS(2,2) Hamiltonian matrix
               PPS           OSS
   PPS    -6.40987765    0.00916167
   OSS     0.00916167   -6.15883247
--------------------------------------------------

----------------------------------------------------------------
 SSR: 2SI-2SA-REKS(2,2) states
                    E_n       C_{PPS}    C_{OSS}
 SSR state  1   -6.41021155  -0.999337   0.036421
 SSR state  2   -6.15849857  -0.036421  -0.999337
----------------------------------------------------------------

 unrelaxed SSR FONs for S0:  1.998567  0.001433

Total Energy:                       -6.4102115542 H         -174.4307 eV
Extrapolated to 0:                  -6.4102115542 H         -174.4307 eV

----------------------------------------------------------------------------------
 Solving CP-REKS equation for  1 state vector...
----------------------------------------------------------------------------------
  CG solver: Constructing Y initial guess
  CG solver: Iteration    1    eps =    0.000113907041
  CG solver: Iteration    2    eps =    0.000073866229
  CG solver: Iteration    3    eps =    0.000005470406
  CG solver: Iteration    4    eps =    0.000000869657
  CG solver: Iteration    5    eps =    0.000000010982
  CG solver: Iteration    6    eps =    0.000000004711
  Convergence reached in CG solver after    6 iterations
  CG solver: Calculating converged R, Z, Q2 matrix
----------------------------------------------------------------------------------

----------------------------------------------------------------------------------
 Solving CP-REKS equation for SI between  1 and  2 state vectors...
----------------------------------------------------------------------------------
  CG solver: Constructing Y initial guess
  CG solver: Iteration    1    eps =    0.002657759306
  CG solver: Iteration    2    eps =    0.003759177710
  CG solver: Iteration    3    eps =    0.000521184661
  CG solver: Iteration    4    eps =    0.000006236988
  CG solver: Iteration    5    eps =    0.000000869902
  CG solver: Iteration    6    eps =    0.000000020407
  CG solver: Iteration    7    eps =    0.000000001432
  Convergence reached in CG solver after    7 iterations
  CG solver: Calculating converged R, Z, Q2 matrix
----------------------------------------------------------------------------------

--------------------------------------------------
 Gradient Information
--------------------------------------------------
           1 st state (SSR)
    -0.00443167    -0.00602719     0.00389466
     0.00945170    -0.00221927     0.00197596
     0.01434231     0.00388747     0.00613277
     0.01037852    -0.00224313    -0.00728948
    -0.01640291     0.00892235    -0.00466082
    -0.01333795    -0.00232023    -0.00005310

           2 st state (SSR)
     0.00529712    -0.00534719     0.11069307
    -0.00945560     0.00023217    -0.12103823
    -0.01151147    -0.00663912     0.02078356
    -0.00766028     0.00716282    -0.01478316
     0.01233795     0.00207767    -0.01185226
     0.01099229     0.00251365     0.01619702
--------------------------------------------------
 Coupling Information
--------------------------------------------------
 between  1 and  2 states
--------------------------------------------------
 g vector - difference gradient
    -0.00497742    -0.00021518    -0.05490977
     0.00969743    -0.00119056     0.06276240
     0.01389766     0.00499985    -0.00730423
     0.00998610    -0.00472534     0.00382419
    -0.01551781     0.00331528     0.00363217
    -0.01308596    -0.00218404    -0.00800476

 h vector - derivative coupling
    -0.00137118     0.00172259    -0.01874988
     0.00299536     0.00052634     0.01495713
     0.01282924    -0.00380124     0.00055685
     0.01291586    -0.00013505     0.00092330
    -0.01519631    -0.00159156     0.00036834
    -0.01217297     0.00327892     0.00194427

 G vector - GDV
    -0.00486440    -0.00034000    -0.05339920
     0.00945365    -0.00122572     0.06150709
     0.01292689     0.00526329    -0.00732539
     0.00901940    -0.00470297     0.00374684
    -0.01437043     0.00342234     0.00359572
    -0.01216512    -0.00241694    -0.00812506

 H vector - DCV - non-adiabatic coupling
    -0.00687241     0.00676310    -0.09017124
     0.01467280     0.00174116     0.07741439
     0.05485167    -0.01361548     0.00009400
     0.05406368    -0.00190167     0.00476427
    -0.06469910    -0.00534736     0.00250988
    -0.05201664     0.01236024     0.00538869
--------------------------------------------------


--------------------------------------------------------------------------------
DFTB+ running times                          cpu [s]             wall clock [s]
--------------------------------------------------------------------------------
SCC                                    +     0.03  ( 72.4%)      0.03  ( 62.7%)
Post-SCC processing                    +     0.01  ( 23.9%)      0.01  ( 21.6%)
--------------------------------------------------------------------------------
Missing                                +     0.00  (  3.7%)      0.01  ( 15.7%)
Total                                  =     0.04  (100.0%)      0.05  (100.0%)
--------------------------------------------------------------------------------
