     6
  Step:   120            Position(A)                                  Velocity(au)
C        -0.01202476     0.10751356    -0.02160002     0.00008948     0.00007347     0.00003019
N        -0.04265206    -0.08788994     1.34070639     0.00000487    -0.00006103    -0.00016042
H         0.66752206    -0.64109285    -0.56903227    -0.00107644    -0.00117012     0.00065406
H         0.77942596     0.21305268     1.88765237    -0.00073063     0.00133937     0.00058920
H        -0.93769441    -0.34097558     1.83253313     0.00060756    -0.00090332     0.00007884
H        -0.98619669     0.03946175    -0.63267637     0.00006568     0.00070675     0.00054744
