|===============================================================================
|
|  DFTB+ release 20.1
|
|  Copyright (C) 2006 - 2020  DFTB+ developers group
|
|===============================================================================
|
|  When publishing results obtained with DFTB+, please cite the following
|  reference:
|
|  * DFTB+, a software package for efficient approximate density functional
|    theory based atomistic simulations, J. Chem. Phys. 152, 124101 (2020).
|    [doi: 10.1063/1.5143190]
|
|  You should also cite additional publications crediting the parametrization
|  data you use. Please consult the documentation of the SK-files for the
|  references.
|
|===============================================================================

Reading input file 'dftb_in.hsd'
Parser version: 8

--------------------------------------------------------------------------------
Reading SK-files:
Done.


Processed input in HSD format written to 'dftb_pin.hsd'

Starting initialization...
--------------------------------------------------------------------------------
OpenMP threads:              1
Chosen random seed:          502920726
Mode:                        Static calculation
Self consistent charges:     Yes
SCC-tolerance:                 0.100000E-05
Max. scc iterations:                   1000
Shell resolved Hubbard:      No
Spin polarisation:           No
Nr. of up electrons:            16.000000
Nr. of down electrons:          16.000000
Periodic boundaries:         No
Electronic solver:           Relatively robust
Maximal SCC-cycles:                    1000
Initial charges:             Set automatically (system chrg:   0.100E+01)
Included shells:             C:  s, p
                             H:  s
                             N:  s, p
Spin coupling constants:     C   1(s)-1(s):  -0.455900E-01
                             C   1(s)-2(p):  -0.293000E-01
                             C   2(p)-1(s):  -0.293000E-01
                             C   2(p)-2(p):  -0.275500E-01
                             H   1(s)-1(s):  -0.792500E-01
                             N   1(s)-1(s):  -0.468700E-01
                             N   1(s)-2(p):  -0.317000E-01
                             N   2(p)-1(s):  -0.317000E-01
                             N   2(p)-2(p):  -0.307200E-01
Range separated hybrid:      Yes
  Screening parameter omega:   0.300000E+00
  Range separated algorithm:   MatrixBased
Extra options:
                             Mulliken analysis
                             Force calculation
Force type                   original
                             Eigenvector printing


REKS Calcuation:             Yes
SSR(2,2) Calcuation:         Yes
Energy Functional:           (PPS+OSS)/2
Number of Core Orbitals:                 15
Number of Active Orbitals:                2
Number of Basis:                         32
Number of States:                         2
State-Averaging Weight:          0.500000
                                 0.500000
State of Interest:                        1
Initial Guess:               Diagonalize H0 matrix
Newton-Raphson for FON opt:  Yes
NR max. Iterations:                      50
Level Shifting:              Yes
Shift Value:                     0.300000
W Scale Factor:              C  =    3.200000
                             H  =    3.200000
                             N  =    3.200000
Transition Dipole:           No
Gradient of Microstate:      No
CP-REKS Solver:              Preconditioned Conjugate-Gradient
CG max. Iterations:                     100
CG Tolerance:                  0.100000E-07
Memory for A and Hxc:        Direct Updating Without Saving
Non-Adiabatic Coupling:      Yes

--------------------------------------------------------------------------------

***  Geometry step: 0

  iSCC       reks energy        Diff energy         x_a       SCC error   
    1      -16.4102377499       0.0000000000     0.997514    1.19574628
    2      -16.4268847491      -0.0166469992     0.999573    0.04957444
    3      -16.4300382214      -0.0031534723     0.999824    0.02142796
    4      -16.4311310826      -0.0010928612     0.999897    0.01062425
    5      -16.4316168997      -0.0004858171     0.999929    0.00598698
    6      -16.4318594277      -0.0002425280     0.999946    0.00356912
    7      -16.4319890910      -0.0001296633     0.999956    0.00256668
    8      -16.4320616745      -0.0000725835     0.999963    0.00197608
    9      -16.4321037598      -0.0000420853     0.999967    0.00152936
   10      -16.4321289068      -0.0000251470     0.999970    0.00118997
   11      -16.4321443514      -0.0000154447     0.999972    0.00093106
   12      -16.4321540843      -0.0000097328     0.999973    0.00073271
   13      -16.4321603667      -0.0000062824     0.999975    0.00058011
   14      -16.4321645123      -0.0000041456     0.999975    0.00046214
   15      -16.4321673027      -0.0000027904     0.999976    0.00037050
   16      -16.4321692140      -0.0000019113     0.999977    0.00029891
   17      -16.4321705430      -0.0000013290     0.999977    0.00024268
   18      -16.4321714790      -0.0000009360     0.999977    0.00020076
   19      -16.4321721454      -0.0000006664     0.999978    0.00016906
   20      -16.4321726241      -0.0000004787     0.999978    0.00014306
   21      -16.4321729705      -0.0000003464     0.999978    0.00012157
   22      -16.4321732227      -0.0000002522     0.999978    0.00010370
   23      -16.4321734073      -0.0000001846     0.999978    0.00008874
   24      -16.4321735431      -0.0000001357     0.999979    0.00007615
   25      -16.4321736432      -0.0000001002     0.999979    0.00006549
   26      -16.4321737174      -0.0000000741     0.999979    0.00005644
   27      -16.4321737724      -0.0000000550     0.999979    0.00004873
   28      -16.4321738133      -0.0000000409     0.999979    0.00004213
   29      -16.4321738439      -0.0000000305     0.999979    0.00003646
   30      -16.4321738667      -0.0000000228     0.999979    0.00003160
   31      -16.4321738837      -0.0000000171     0.999979    0.00002740
   32      -16.4321738965      -0.0000000128     0.999979    0.00002378
   33      -16.4321739061      -0.0000000096     0.999979    0.00002065
   34      -16.4321739134      -0.0000000072     0.999979    0.00001794
   35      -16.4321739188      -0.0000000054     0.999979    0.00001560
   36      -16.4321739229      -0.0000000041     0.999979    0.00001356
   37      -16.4321739260      -0.0000000031     0.999979    0.00001180
   38      -16.4321739283      -0.0000000023     0.999979    0.00001027
   39      -16.4321739301      -0.0000000018     0.999979    0.00000894
   40      -16.4321739315      -0.0000000013     0.999979    0.00000778
   41      -16.4321739325      -0.0000000010     0.999979    0.00000677
   42      -16.4321739332      -0.0000000008     0.999979    0.00000590
   43      -16.4321739338      -0.0000000006     0.999979    0.00000514
   44      -16.4321739343      -0.0000000004     0.999979    0.00000448
   45      -16.4321739346      -0.0000000003     0.999979    0.00000390
   46      -16.4321739349      -0.0000000003     0.999979    0.00000340
   47      -16.4321739351      -0.0000000002     0.999979    0.00000296
   48      -16.4321739352      -0.0000000001     0.999979    0.00000258
   49      -16.4321739353      -0.0000000001     0.999979    0.00000225
   50      -16.4321739354      -0.0000000001     0.999979    0.00000196
   51      -16.4321739355      -0.0000000001     0.999979    0.00000171
   52      -16.4321739355      -0.0000000001     0.999979    0.00000149
   53      -16.4321739356      -0.0000000000     0.999979    0.00000130
   54      -16.4321739356      -0.0000000000     0.999979    0.00000114
   55      -16.4321739356      -0.0000000000     0.999979    0.00000099
  
--------------------------------------------------
 Final SA-REKS(2,2) energy:     -16.43217394
  
 State     Energy      FON(1)    FON(2)   Spin
  PPS  -16.48472823   1.999958  0.000042  0.00
  OSS  -16.37961964   1.000000  1.000000  0.00
 Trip  -16.41663663   1.000000  1.000000  1.00
--------------------------------------------------

 Lagrangian Wab:  -0.01824854 -0.01824924

--------------------------------------------------
 SSR: 2SI-2SA-REKS(2,2) Hamiltonian matrix
               PPS           OSS
   PPS   -16.48472823   -0.02568907
   OSS    -0.02568907  -16.37961964
--------------------------------------------------

----------------------------------------------------------------
 SSR: 2SI-2SA-REKS(2,2) states
                    E_n       C_{PPS}    C_{OSS}
 SSR state  1  -16.49067080  -0.974272  -0.225375
 SSR state  2  -16.37367707   0.225375  -0.974272
----------------------------------------------------------------

 unrelaxed SSR FONs for S0:  1.949166  0.050834

Total Energy:                      -16.4906707976 H         -448.7340 eV
Extrapolated to 0:                 -16.4906707976 H         -448.7340 eV

----------------------------------------------------------------------------------
 Solving CP-REKS equation for  1 state vector...
----------------------------------------------------------------------------------
  CG solver: Constructing Y initial guess
  CG solver: Iteration    1    eps =    0.004593829963
  CG solver: Iteration    2    eps =    0.000513969356
  CG solver: Iteration    3    eps =    0.000034502289
  CG solver: Iteration    4    eps =    0.000016470131
  CG solver: Iteration    5    eps =    0.000002325261
  CG solver: Iteration    6    eps =    0.000000906023
  CG solver: Iteration    7    eps =    0.000000079648
  CG solver: Iteration    8    eps =    0.000000013790
  CG solver: Iteration    9    eps =    0.000000004115
  Convergence reached in CG solver after    9 iterations
  CG solver: Calculating converged R, Z, Q2 matrix
----------------------------------------------------------------------------------

----------------------------------------------------------------------------------
 Solving CP-REKS equation for SI between  1 and  2 state vectors...
----------------------------------------------------------------------------------
  CG solver: Constructing Y initial guess
  CG solver: Iteration    1    eps =    0.045990759619
  CG solver: Iteration    2    eps =    0.002827826693
  CG solver: Iteration    3    eps =    0.000576305944
  CG solver: Iteration    4    eps =    0.000097003829
  CG solver: Iteration    5    eps =    0.000014697160
  CG solver: Iteration    6    eps =    0.000003985639
  CG solver: Iteration    7    eps =    0.000000383848
  CG solver: Iteration    8    eps =    0.000000098415
  CG solver: Iteration    9    eps =    0.000000023770
  CG solver: Iteration   10    eps =    0.000000003550
  Convergence reached in CG solver after   10 iterations
  CG solver: Calculating converged R, Z, Q2 matrix
----------------------------------------------------------------------------------

--------------------------------------------------
 Gradient Information
--------------------------------------------------
           1 st state (SSR)
     0.01855442    -0.02299223    -0.02553337
    -0.04807179    -0.02216667     0.00661874
     0.01277197     0.02592687     0.01520123
     0.01466185     0.00395585     0.00378086
     0.02137351    -0.01631690    -0.00671297
    -0.08805983     0.07717191     0.11011695
     0.05134990     0.03489541    -0.03603864
     0.01691168    -0.04465143    -0.04286019
     0.00365547    -0.00723698     0.00655643
    -0.01232766    -0.00133379    -0.00283067
     0.04255441    -0.00453797    -0.02016396
    -0.04409107    -0.04582498    -0.04542419
     0.01581600    -0.00701594     0.03370033
    -0.00509885     0.03012684     0.00358946

           2 st state (SSR)
     0.03760160    -0.02705984    -0.02836966
    -0.07704571    -0.02243708     0.00405110
     0.01308256     0.02604139     0.01386083
     0.01494505     0.00384828     0.00653420
     0.02142663    -0.01513997    -0.00640366
    -0.00322660     0.07092980     0.04004357
    -0.07472923     0.02313387     0.01625985
     0.01945253    -0.04639607    -0.04048556
     0.00584795    -0.00880225     0.00929509
     0.01822939     0.06736197     0.05806563
     0.04290764    -0.01248674    -0.01222523
    -0.02860122    -0.08242384    -0.09891206
     0.02116095     0.00032749     0.02803277
    -0.01105155     0.02310300     0.01025314
--------------------------------------------------
 Coupling Information
--------------------------------------------------
 between  1 and  2 states
--------------------------------------------------
 g vector - difference gradient
    -0.00127660    -0.00030051     0.00105782
     0.00542853     0.00046656     0.00174587
     0.00004911    -0.00010809     0.00005625
     0.00025493     0.00000772    -0.00008263
    -0.00009943     0.00010752    -0.00107175
    -0.05437858     0.00665348     0.04693715
     0.08789342     0.01236513    -0.03302260
    -0.00154724     0.00096619    -0.00165778
    -0.00043979     0.00067080    -0.00098488
    -0.02556914    -0.04670937    -0.03998478
    -0.00001229     0.00589459    -0.00492098
    -0.01000069     0.01929760     0.03027144
    -0.00271241    -0.00506708     0.00545883
     0.00241018     0.00575545    -0.00380195

 h vector - derivative coupling
    -0.01907463     0.00524598     0.00106521
     0.02188281    -0.00064659    -0.00064827
    -0.00045408     0.00009073     0.00141103
    -0.00084397     0.00010670    -0.00296578
     0.00014293    -0.00155997     0.00184040
     0.01465951    -0.00650458    -0.01624085
    -0.03626290    -0.01190523     0.00801239
     0.00027242     0.00000975     0.00068781
    -0.00159655     0.00040984    -0.00110327
     0.01751803     0.01734336     0.01246643
    -0.00037703    -0.00300895     0.00102859
     0.00282319     0.00219109    -0.00102993
    -0.00053651     0.00200525    -0.00471477
     0.00184678    -0.00377739     0.00019099

 G vector - GDV
    -0.00952359     0.00203380     0.00141815
     0.01448696     0.00013521     0.00128382
    -0.00015529    -0.00005726     0.00067020
    -0.00014160     0.00005379    -0.00137667
    -0.00002656    -0.00058846    -0.00015465
    -0.04241662     0.00312106     0.03503669
     0.06303957     0.00588077    -0.02614925
    -0.00127043     0.00087232    -0.00118732
    -0.00109624     0.00078263    -0.00136933
    -0.01527853    -0.03434788    -0.03044815
    -0.00017662     0.00397439    -0.00396936
    -0.00774493     0.01829943     0.02674393
    -0.00267247    -0.00367171     0.00283378
     0.00297635     0.00351192    -0.00333184

 H vector - DCV - non-adiabatic coupling
    -0.14168499     0.04141273     0.00420920
     0.14766463    -0.00671657    -0.01153150
    -0.00367126     0.00110243     0.01062434
    -0.00743788     0.00079036    -0.02246449
     0.00147078    -0.01238285     0.01815571
     0.31669050    -0.07492445    -0.30090132
    -0.60838908    -0.13783634     0.18548351
     0.00789972    -0.00355187     0.01150450
    -0.01060933     0.00062929    -0.00477528
     0.23050106     0.30851272     0.24582034
    -0.00284915    -0.04523241     0.02637027
     0.05921875    -0.05561063    -0.12153721
     0.00606149     0.03441865    -0.05669591
     0.00513473    -0.05061105     0.01573784
--------------------------------------------------


--------------------------------------------------------------------------------
DFTB+ running times                          cpu [s]             wall clock [s]
--------------------------------------------------------------------------------
SCC                                    +     0.09  ( 23.6%)      0.10  ( 24.9%)
      Dense to sparse                        0.02  (  4.2%)      0.02  (  3.9%)
  Density matrix creation                    0.01  (  2.3%)      0.01  (  2.8%)
Post-SCC processing                    +     0.28  ( 75.7%)      0.29  ( 73.5%)
  Force calculation                          0.28  ( 75.6%)      0.28  ( 73.3%)
--------------------------------------------------------------------------------
Missing                                +     0.00  (  0.7%)      0.01  (  1.5%)
Total                                  =     0.38  (100.0%)      0.39  (100.0%)
--------------------------------------------------------------------------------
