|===============================================================================
|
|  DFTB+ release 20.1
|
|  Copyright (C) 2006 - 2020  DFTB+ developers group
|
|===============================================================================
|
|  When publishing results obtained with DFTB+, please cite the following
|  reference:
|
|  * DFTB+, a software package for efficient approximate density functional
|    theory based atomistic simulations, J. Chem. Phys. 152, 124101 (2020).
|    [doi: 10.1063/1.5143190]
|
|  You should also cite additional publications crediting the parametrization
|  data you use. Please consult the documentation of the SK-files for the
|  references.
|
|===============================================================================

Reading input file 'dftb_in.hsd'
Parser version: 8

--------------------------------------------------------------------------------
Reading SK-files:
Done.


Processed input in HSD format written to 'dftb_pin.hsd'

Starting initialization...
--------------------------------------------------------------------------------
OpenMP threads:              1
Chosen random seed:          511176934
Mode:                        Static calculation
Self consistent charges:     Yes
SCC-tolerance:                 0.100000E-05
Max. scc iterations:                   1000
Shell resolved Hubbard:      No
Spin polarisation:           No
Nr. of up electrons:             6.000000
Nr. of down electrons:           6.000000
Periodic boundaries:         No
Electronic solver:           Relatively robust
Maximal SCC-cycles:                    1000
Initial charges:             Set automatically (system chrg:   0.100E+01)
Included shells:             C:  s, p
                             N:  s, p
                             H:  s
Spin coupling constants:     C   1(s)-1(s):  -0.455900E-01
                             C   1(s)-2(p):  -0.293000E-01
                             C   2(p)-1(s):  -0.293000E-01
                             C   2(p)-2(p):  -0.275500E-01
                             N   1(s)-1(s):  -0.468700E-01
                             N   1(s)-2(p):  -0.317000E-01
                             N   2(p)-1(s):  -0.317000E-01
                             N   2(p)-2(p):  -0.307200E-01
                             H   1(s)-1(s):  -0.792500E-01
Range separated hybrid:      Yes
  Screening parameter omega:   0.300000E+00
  Range separated algorithm:   MatrixBased
Extra options:
                             Mulliken analysis
                             Force calculation
Force type                   original
                             Eigenvector printing


REKS Calcuation:             Yes
SSR(2,2) Calcuation:         Yes
Energy Functional:           (PPS+OSS)/2
Number of Core Orbitals:                  5
Number of Active Orbitals:                2
Number of Basis:                         12
Number of States:                         2
State-Averaging Weight:          0.500000
                                 0.500000
State of Interest:                        1
Initial Guess:               Diagonalize H0 matrix
Newton-Raphson for FON opt:  Yes
NR max. Iterations:                      50
Level Shifting:              Yes
Shift Value:                     0.300000
W Scale Factor:              C  =    3.000000
                             N  =    3.000000
                             H  =    3.000000
Transition Dipole:           No
Gradient of Microstate:      No
CP-REKS Solver:              Preconditioned Conjugate-Gradient
CG max. Iterations:                     100
CG Tolerance:                  0.100000E-07
Memory for A and Hxc:        Direct Updating Without Saving
Non-Adiabatic Coupling:      Yes

--------------------------------------------------------------------------------

***  Geometry step: 0

  iSCC       reks energy        Diff energy         x_a       SCC error   
    1       -6.2683947575       0.0000000000     0.999859    1.19389590
    2       -6.2766810669      -0.0082863094     0.999925    0.05649195
    3       -6.2794867687      -0.0028057018     0.999951    0.02056644
    4       -6.2808132243      -0.0013264556     0.999962    0.00918922
    5       -6.2814777271      -0.0006645028     0.999968    0.00753087
    6       -6.2818156886      -0.0003379615     0.999971    0.00600496
    7       -6.2819881550      -0.0001724664     0.999973    0.00460036
    8       -6.2820761694      -0.0000880144     0.999974    0.00343614
    9       -6.2821210624      -0.0000448931     0.999974    0.00252499
   10       -6.2821439581      -0.0000228956     0.999974    0.00183587
   11       -6.2821556415      -0.0000116834     0.999975    0.00132563
   12       -6.2821616113      -0.0000059698     0.999975    0.00095290
   13       -6.2821646680      -0.0000030567     0.999975    0.00068301
   14       -6.2821662376      -0.0000015695     0.999975    0.00048868
   15       -6.2821670464      -0.0000008088     0.999975    0.00034929
   16       -6.2821674650      -0.0000004186     0.999975    0.00024954
   17       -6.2821676828      -0.0000002178     0.999975    0.00017827
   18       -6.2821677968      -0.0000001140     0.999975    0.00012738
   19       -6.2821678568      -0.0000000600     0.999975    0.00009107
   20       -6.2821678887      -0.0000000319     0.999975    0.00006515
   21       -6.2821679058      -0.0000000171     0.999975    0.00004665
   22       -6.2821679150      -0.0000000092     0.999975    0.00003344
   23       -6.2821679200      -0.0000000050     0.999975    0.00002400
   24       -6.2821679227      -0.0000000028     0.999975    0.00001725
   25       -6.2821679243      -0.0000000015     0.999975    0.00001342
   26       -6.2821679251      -0.0000000009     0.999975    0.00001078
   27       -6.2821679256      -0.0000000005     0.999975    0.00000865
   28       -6.2821679259      -0.0000000003     0.999975    0.00000692
   29       -6.2821679261      -0.0000000002     0.999975    0.00000553
   30       -6.2821679262      -0.0000000001     0.999975    0.00000441
   31       -6.2821679262      -0.0000000001     0.999975    0.00000351
   32       -6.2821679262      -0.0000000000     0.999975    0.00000279
   33       -6.2821679263      -0.0000000000     0.999975    0.00000222
   34       -6.2821679263      -0.0000000000     0.999975    0.00000176
   35       -6.2821679263      -0.0000000000     0.999975    0.00000139
   36       -6.2821679263      -0.0000000000     0.999975    0.00000110
   37       -6.2821679263      -0.0000000000     0.999975    0.00000087
  
--------------------------------------------------
 Final SA-REKS(2,2) energy:      -6.28216793
  
 State     Energy      FON(1)    FON(2)   Spin
  PPS   -6.41166883   1.999950  0.000050  0.00
  OSS   -6.15266702   1.000000  1.000000  0.00
 Trip   -6.22960218   1.000000  1.000000  1.00
--------------------------------------------------

 Lagrangian Wab:   0.00154810  0.00154801

--------------------------------------------------
 SSR: 2SI-2SA-REKS(2,2) Hamiltonian matrix
               PPS           OSS
   PPS    -6.41166883    0.00217837
   OSS     0.00217837   -6.15266702
--------------------------------------------------

----------------------------------------------------------------
 SSR: 2SI-2SA-REKS(2,2) states
                    E_n       C_{PPS}    C_{OSS}
 SSR state  1   -6.41168715  -0.999965   0.008410
 SSR state  2   -6.15264870  -0.008410  -0.999965
----------------------------------------------------------------

 unrelaxed SSR FONs for S0:  1.999879  0.000121

Total Energy:                       -6.4116871524 H         -174.4709 eV
Extrapolated to 0:                  -6.4116871524 H         -174.4709 eV

----------------------------------------------------------------------------------
 Solving CP-REKS equation for  1 state vector...
----------------------------------------------------------------------------------
  CG solver: Constructing Y initial guess
  CG solver: Iteration    1    eps =    0.000029099033
  CG solver: Iteration    2    eps =    0.000002730969
  CG solver: Iteration    3    eps =    0.000000286657
  CG solver: Iteration    4    eps =    0.000000010802
  CG solver: Iteration    5    eps =    0.000000003916
  Convergence reached in CG solver after    5 iterations
  CG solver: Calculating converged R, Z, Q2 matrix
----------------------------------------------------------------------------------

----------------------------------------------------------------------------------
 Solving CP-REKS equation for SI between  1 and  2 state vectors...
----------------------------------------------------------------------------------
  CG solver: Constructing Y initial guess
  CG solver: Iteration    1    eps =    0.000486161249
  CG solver: Iteration    2    eps =    0.000179975107
  CG solver: Iteration    3    eps =    0.000059967433
  CG solver: Iteration    4    eps =    0.000001245428
  CG solver: Iteration    5    eps =    0.000000151759
  CG solver: Iteration    6    eps =    0.000000011411
  CG solver: Iteration    7    eps =    0.000000000290
  Convergence reached in CG solver after    7 iterations
  CG solver: Calculating converged R, Z, Q2 matrix
----------------------------------------------------------------------------------

--------------------------------------------------
 Gradient Information
--------------------------------------------------
           1 st state (SSR)
    -0.00735214    -0.01936262     0.03429168
     0.03224629    -0.00653469    -0.04454131
     0.00317297     0.00383137    -0.00777889
    -0.00982663     0.00767985     0.00799445
    -0.01423303     0.00938221     0.00375686
    -0.00400746     0.00500388     0.00627720

           2 st state (SSR)
     0.00852648    -0.00395176     0.14227139
    -0.01441154     0.00039430    -0.17019866
    -0.00602010     0.00917467     0.01247049
     0.00073604    -0.00123385    -0.00087009
     0.00957780     0.01225446    -0.00469193
     0.00159132    -0.01663783     0.02101880
--------------------------------------------------
 Coupling Information
--------------------------------------------------
 between  1 and  2 states
--------------------------------------------------
 g vector - difference gradient
    -0.00790672    -0.00763539    -0.05400387
     0.02337946    -0.00360652     0.06284260
     0.00468028    -0.00268452    -0.01012171
    -0.00518952     0.00451025     0.00446131
    -0.01203171    -0.00138429     0.00420213
    -0.00293179     0.01080046    -0.00738047

 h vector - derivative coupling
     0.00200448     0.00422869    -0.00037925
     0.00280846    -0.00841382     0.00029932
     0.00493974    -0.00074276     0.00026243
     0.00550240     0.00313721     0.00168930
    -0.00740766     0.00309381    -0.00135896
    -0.00784742    -0.00130313    -0.00051284

 G vector - GDV
    -0.00793931    -0.00770543    -0.05398985
     0.02332892    -0.00346450     0.06282867
     0.00459653    -0.00267165    -0.01012469
    -0.00528133     0.00445685     0.00443227
    -0.01190542    -0.00143613     0.00422439
    -0.00279939     0.01082085    -0.00737080

 H vector - DCV - non-adiabatic coupling
     0.00722370     0.01582651    -0.00497022
     0.01235831    -0.03271055     0.00523559
     0.01937069    -0.00304126     0.00035575
     0.02090170     0.01240209     0.00681017
    -0.02937390     0.01185189    -0.00497260
    -0.03048050    -0.00432869    -0.00245869
--------------------------------------------------


--------------------------------------------------------------------------------
DFTB+ running times                          cpu [s]             wall clock [s]
--------------------------------------------------------------------------------
SCC                                    +     0.02  ( 54.6%)      0.03  ( 51.8%)
Post-SCC processing                    +     0.01  ( 40.6%)      0.02  ( 32.1%)
  Force calculation                          0.01  ( 39.9%)      0.01  ( 23.2%)
--------------------------------------------------------------------------------
Missing                                +     0.00  (  4.8%)      0.01  ( 16.1%)
Total                                  =     0.03  (100.0%)      0.06  (100.0%)
--------------------------------------------------------------------------------
