     6
  Step:     0            Position(A)                                  Velocity(au)
C        -0.03921990     0.02592536     0.00799294     0.00007273     0.00004339    -0.00011032
N        -0.04533766    -0.05757468     1.31143539     0.00007954    -0.00015015     0.00005855
H         0.90839965    -0.05791086    -0.55143780    -0.00093733     0.00012649     0.00054476
H         0.87509139    -0.16713926     1.87739784    -0.00005314     0.00063084     0.00011301
H        -0.91008844     0.01186226     1.75129170    -0.00071576     0.00083919    -0.00011892
H        -0.98896548     0.03455962    -0.50462268    -0.00026571    -0.00002702    -0.00003786
     6
  Step:     1            Position(A)                                  Velocity(au)
C        -0.03879706     0.02617190     0.00732620     0.00008099     0.00004685    -0.00013275
N        -0.04481527    -0.05841140     1.31182012     0.00011033    -0.00015584     0.00008216
H         0.90334521    -0.05722077    -0.54865473    -0.00090201     0.00012511     0.00046705
H         0.87426581    -0.16363530     1.87779821    -0.00024674     0.00065035     0.00003497
H        -0.91474845     0.01653137     1.75125860    -0.00097498     0.00086854     0.00009989
H        -0.99072315     0.03438603    -0.50517422    -0.00037449    -0.00003665    -0.00016173
     6
  Step:     2            Position(A)                                  Velocity(au)
C        -0.03833408     0.02643775     0.00654105     0.00008731     0.00005047    -0.00015365
N        -0.04413101    -0.05927910     1.31233397     0.00013835    -0.00016149     0.00010581
H         0.89853433    -0.05654251    -0.54632961    -0.00084868     0.00012221     0.00037755
H         0.87239277    -0.16002633     1.87778035    -0.00043455     0.00066933    -0.00003879
H        -0.92075186     0.02136145     1.75238417    -0.00120289     0.00089783     0.00030237
H        -0.99306133     0.03415880    -0.50639149    -0.00047676    -0.00004666    -0.00028061
     6
  Step:     3            Position(A)                                  Velocity(au)
C        -0.03784233     0.02672376     0.00564609     0.00009143     0.00005422    -0.00017290
N        -0.04330247    -0.06017725     1.31297715     0.00016275    -0.00016693     0.00012944
H         0.89406492    -0.05588438    -0.54452619    -0.00077754     0.00011779     0.00027655
H         0.86951406    -0.15631627     1.87737400    -0.00061280     0.00068722    -0.00010596
H        -0.92790192     0.02634907     1.75456497    -0.00139098     0.00092568     0.00048395
H        -0.99593645     0.03387577    -0.50824268    -0.00056967    -0.00005708    -0.00039292
     6
  Step:     4            Position(A)                                  Velocity(au)
C        -0.03733438     0.02703063     0.00465046     0.00009315     0.00005807    -0.00019040
N        -0.04235146    -0.06110440     1.31374931     0.00018281    -0.00017200     0.00015286
H         0.89003232    -0.05525458    -0.54330572    -0.00068937     0.00011187     0.00016474
H         0.86569211    -0.15251189     1.87662172    -0.00077751     0.00070352    -0.00016410
H        -0.93596159     0.03148329     1.75767596    -0.00153293     0.00095072     0.00064117
H        -0.99929035     0.03353471    -0.51068787    -0.00065064    -0.00006787    -0.00049717
     6
  Step:     5            Position(A)                                  Velocity(au)
C        -0.03682360     0.02735885     0.00356387     0.00009240     0.00006198    -0.00020604
N        -0.04130322    -0.06205828     1.31464884     0.00019800    -0.00017656     0.00017580
H         0.88652596    -0.05466101    -0.54272460    -0.00058567     0.00010454     0.00004332
H         0.86101120    -0.14862265     1.87557940    -0.00092456     0.00071773    -0.00021073
H        -0.94466600     0.03674609     1.76157681    -0.00162480     0.00097174     0.00077175
H        -1.00305178     0.03313351    -0.51367971    -0.00071744    -0.00007902    -0.00059205
     6
  Step:     6            Position(A)                                  Velocity(au)
C        -0.03632365     0.02770865     0.00239652     0.00008915     0.00006589    -0.00021974
N        -0.04018548    -0.06303584     1.31567240     0.00020793    -0.00018047     0.00019788
H         0.88362560    -0.05411097    -0.54283178    -0.00046863     0.00009596    -0.00008602
H         0.85557814    -0.14466049     1.87431648    -0.00104981     0.00072946    -0.00024339
H        -0.95373556     0.04211331     1.76611829    -0.00166503     0.00098773     0.00087458
H        -1.00713856     0.03267029    -0.51716436    -0.00076832    -0.00009046    -0.00067645
     6
  Step:     7            Position(A)                                  Velocity(au)
C        -0.03584792     0.02807999     0.00115903     0.00008353     0.00006976    -0.00023144
N        -0.03902762    -0.06403336     1.31681441     0.00021239    -0.00018364     0.00021867
H         0.88139726    -0.05361080    -0.54366599    -0.00034119     0.00008634    -0.00022113
H         0.84952207    -0.14063940     1.87291570    -0.00114928     0.00073841    -0.00025975
H        -0.96288819     0.04755589     1.77114825    -0.00165434     0.00099799     0.00094966
H        -1.01146025     0.03214351    -0.52108281    -0.00080204    -0.00010212    -0.00074958
     6
  Step:     8            Position(A)                                  Velocity(au)
C        -0.03540894     0.02847252    -0.00013779     0.00007575     0.00007352    -0.00024113
N        -0.03785974    -0.06504668     1.31806685     0.00021134    -0.00018599     0.00023772
H         0.87988951    -0.05316555    -0.54525324    -0.00020688     0.00007594    -0.00035948
H         0.84299332    -0.13657475     1.87147221    -0.00121939     0.00074442    -0.00025770
H        -0.97185094     0.05304148     1.77651725    -0.00159535     0.00100209     0.00099794
H        -1.01592110     0.03155202    -0.52537237    -0.00081798    -0.00011393    -0.00081092
     6
  Step:     9            Position(A)                                  Velocity(au)
C        -0.03501785     0.02888558    -0.00148308     0.00006611     0.00007713    -0.00024884
N        -0.03671185    -0.06607132     1.31941922     0.00020490    -0.00018751     0.00025462
H         0.87913041    -0.05277872    -0.54760494    -0.00006966     0.00006507    -0.00049827
H         0.83616086    -0.13248259     1.87009199    -0.00125722     0.00074748    -0.00023558
H        -0.98036896     0.05853609     1.78208295    -0.00149220     0.00099993     0.00102112
H        -1.02042313     0.03089516    -0.52996833    -0.00081604    -0.00012579    -0.00086030
     6
  Step:    10            Position(A)                                  Velocity(au)
C        -0.03468400     0.02931823    -0.00286628     0.00005497     0.00008053    -0.00025465
N        -0.03561305    -0.06710275     1.32085870     0.00019330    -0.00018821     0.00026897
H         0.87912568    -0.05245204    -0.55071673     0.00006632     0.00005407    -0.00063460
H         0.82920793    -0.12837872     1.86888908    -0.00126082     0.00074775    -0.00019229
H        -0.98821280     0.06400561     1.78771378    -0.00135007     0.00099166     0.00102149
H        -1.02486894     0.03017273    -0.53480554    -0.00079663    -0.00013763    -0.00089783
     6
  Step:    11            Position(A)                                  Velocity(au)
C        -0.03441465     0.02976924    -0.00427726     0.00004274     0.00008369    -0.00025867
N        -0.03459082    -0.06813653     1.32237053     0.00017691    -0.00018814     0.00028049
H         0.87985811    -0.05218539    -0.55456819     0.00019696     0.00004327    -0.00076564
H         0.82232628    -0.12427774     1.86798200    -0.00122935     0.00074554    -0.00012746
H        -0.99518292     0.06941723     1.79329140    -0.00117471     0.00097766     0.00100163
H        -1.02916430     0.02938497    -0.53981992    -0.00076061    -0.00014935    -0.00092388
     6
  Step:    12            Position(A)                                  Velocity(au)
C        -0.03421471     0.03023720    -0.00570656     0.00002983     0.00008658    -0.00026105
N        -0.03367049    -0.06916853     1.32393851     0.00015622    -0.00018736     0.00028898
H         0.88128834    -0.05197695    -0.55912365     0.00031843     0.00003298    -0.00088876
H         0.81570934    -0.12019247     1.86748951    -0.00116334     0.00074131    -0.00004155
H        -1.00111141     0.07474052     1.79871188    -0.00097214     0.00095848     0.00096435
H        -1.03322065     0.02853286    -0.54494997    -0.00070922    -0.00016088    -0.00093909
     6
  Step:    13            Position(A)                                  Velocity(au)
C        -0.03408687     0.03072051    -0.00714554     0.00001665     0.00008917    -0.00026196
N        -0.03287445    -0.07019507     1.32554567     0.00013178    -0.00018597     0.00029439
H         0.88335682    -0.05182300    -0.56433326     0.00042738     0.00002352    -0.00100163
H         0.80954433    -0.11613277     1.86752552    -0.00106477     0.00073562     0.00006404
H        -1.00586410     0.07994834     1.80388694    -0.00074838     0.00093480     0.00091250
H        -1.03695673     0.02761733    -0.55013790    -0.00064395    -0.00017222    -0.00094424
     6
  Step:    14            Position(A)                                  Velocity(au)
C        -0.03403163     0.03121746    -0.00858648     0.00000358     0.00009144    -0.00026156
N        -0.03222172    -0.07121297     1.32717490     0.00010427    -0.00018407     0.00029674
H         0.88598681    -0.05171834    -0.57013515     0.00052106     0.00001514    -0.00110230
H         0.80400366    -0.11210529     1.86819358    -0.00093709     0.00072910     0.00018693
H        -1.00933879     0.08501738     1.80874352    -0.00050908     0.00090734     0.00084882
H        -1.04029995     0.02663956    -0.55533054    -0.00056643    -0.00018333    -0.00094023
     6
  Step:    15            Position(A)                                  Velocity(au)
C        -0.03404752     0.03172629    -0.01002254    -0.00000907     0.00009339    -0.00026001
N        -0.03172758    -0.07221968     1.32880961     0.00007439    -0.00018177     0.00029619
H         0.88908806    -0.05165645    -0.57645780     0.00059740     0.00000804    -0.00118931
H         0.79923700    -0.10811321     1.86958158    -0.00078514     0.00072235     0.00032378
H        -1.01146363     0.08992841     1.81322327    -0.00025957     0.00087685     0.00077591
H        -1.04318700     0.02560088    -0.56047968    -0.00047839    -0.00019419    -0.00092799
     6
  Step:    16            Position(A)                                  Velocity(au)
C        -0.03413141     0.03224519    -0.01144771    -0.00002100     0.00009502    -0.00025745
N        -0.03140311    -0.07321321     1.33043425     0.00004293    -0.00017917     0.00029297
H         0.89256078    -0.05162990    -0.58322259     0.00065505     0.00000235    -0.00126157
H         0.79536381    -0.10415640     1.87175658    -0.00061494     0.00071592     0.00047044
H        -1.01219510     0.09466642     1.81728178    -0.00000476     0.00084407     0.00069622
H        -1.04556422     0.02450271    -0.56554239    -0.00038159    -0.00020478    -0.00090849
     6
  Step:    17            Position(A)                                  Velocity(au)
C        -0.03427873     0.03277236    -0.01285670    -0.00003200     0.00009633    -0.00025398
N        -0.03125501    -0.07419214     1.33203481     0.00001069    -0.00017637     0.00028737
H         0.89629927    -0.05163057    -0.59034606     0.00069325    -0.00000182    -0.00131840
H         0.79246733    -0.10023184     1.87476052    -0.00043343     0.00071026     0.00062203
H        -1.01151598     0.09922055     1.82088772     0.00025075     0.00080975     0.00061203
H        -1.04738779     0.02334647    -0.57048099    -0.00027781    -0.00021512    -0.00088265
     6
  Step:    18            Position(A)                                  Velocity(au)
C        -0.03448381     0.03330601    -0.01424476    -0.00004188     0.00009730    -0.00024969
N        -0.03128537    -0.07515554     1.33359907    -0.00002148    -0.00017344     0.00027974
H         0.90019547    -0.05164994    -0.59774198     0.00071188    -0.00000443    -0.00135945
H         0.79059046    -0.09633436     1.87860695    -0.00024810     0.00070566     0.00077323
H        -1.00943366     0.10358408     1.82402203     0.00050258     0.00077459     0.00052552
H        -1.04862366     0.02213365    -0.57526292    -0.00016880    -0.00022517    -0.00085136
     6
  Step:    19            Position(A)                                  Velocity(au)
C        -0.03474012     0.03384436    -0.01560754    -0.00005051     0.00009796    -0.00024462
N        -0.03149166    -0.07610289     1.33511674    -0.00005275    -0.00017043     0.00027041
H         0.90414219    -0.05167934    -0.60532330     0.00071136    -0.00000547    -0.00138470
H         0.78973401    -0.09245753     1.88327931    -0.00006652     0.00070221     0.00091853
H        -1.00597902     0.10775435     1.82667742     0.00074650     0.00073933     0.00043877
H        -1.04924745     0.02086572    -0.57986049    -0.00005631    -0.00023494    -0.00081545
     6
  Step:    20            Position(A)                                  Velocity(au)
C        -0.03504054     0.03438566    -0.01694085    -0.00005780     0.00009829    -0.00023878
N        -0.03186680    -0.07703399     1.33657946    -0.00008232    -0.00016741     0.00025971
H         0.90803589    -0.05171024    -0.61300373     0.00069253    -0.00000499    -0.00139437
H         0.78985734    -0.08859475     1.88873077     0.00010406     0.00069986     0.00105256
H        -1.00120594     0.11173278     1.82885803     0.00097831     0.00070470     0.00035386
H        -1.04924434     0.01954418    -0.58425057     0.00005790    -0.00024441    -0.00077573
     6
  Step:    21            Position(A)                                  Velocity(au)
C        -0.03537753     0.03492817    -0.01824058    -0.00006369     0.00009830    -0.00023219
N        -0.03239939    -0.07794889     1.33798058    -0.00010942    -0.00016440     0.00024794
H         0.91177873    -0.05173435    -0.62069891     0.00065661    -0.00000304    -0.00138891
H         0.79088143    -0.08474019     1.89488579     0.00025711     0.00069836     0.00117036
H        -0.99519130     0.11552506     1.83057942     0.00119375     0.00067150     0.00027289
H        -1.04860902     0.01817057    -0.58841441     0.00017209    -0.00025358    -0.00073297
     6
  Step:    22            Position(A)                                  Velocity(au)
C        -0.03574326     0.03547017    -0.01950261    -0.00006814     0.00009799    -0.00022483
N        -0.03307404    -0.07884782     1.33931498    -0.00013337    -0.00016144     0.00023534
H         0.91528025    -0.05174376    -0.62832751     0.00060510     0.00000029    -0.00136898
H         0.79269401    -0.08088977     1.90164332     0.00038724     0.00069733     0.00126773
H        -0.98803529     0.11914146     1.83186886     0.00138858     0.00064059     0.00019801
H        -1.04734571     0.01674648    -0.59233745     0.00028451    -0.00026242    -0.00068795
     6
  Step:    23            Position(A)                                  Velocity(au)
C        -0.03612981     0.03600997    -0.02072269    -0.00007115     0.00009738    -0.00021669
N        -0.03387184    -0.07973119     1.34057867    -0.00015360    -0.00015857     0.00022209
H         0.91845905    -0.05173112    -0.63581232     0.00053983     0.00000489    -0.00133548
H         0.79515652    -0.07704173     1.90888141     0.00049043     0.00069632     0.00134142
H        -0.97986141     0.12259715     1.83276547     0.00155863     0.00061291     0.00013139
H        -1.04546808     0.01527352    -0.59600934     0.00039343    -0.00027093    -0.00064145
     6
  Step:    24            Position(A)                                  Velocity(au)
C        -0.03652928     0.03654594    -0.02189651    -0.00007273     0.00009647    -0.00020776
N        -0.03477097    -0.08059963     1.34176853    -0.00016964    -0.00015582     0.00020832
H         0.92124411    -0.05168970    -0.64308148     0.00046277     0.00001064    -0.00128951
H         0.79811212    -0.07319702     1.91646299     0.00056418     0.00069485     0.00138935
H        -0.97081600     0.12591271     1.83332045     0.00169992     0.00058947     0.00007520
H        -1.04299919     0.01375328    -0.59942398     0.00049719    -0.00027915    -0.00059426
     6
  Step:    25            Position(A)                                  Velocity(au)
C        -0.03693389     0.03707655    -0.02301969    -0.00007292     0.00009530    -0.00019805
N        -0.03574741    -0.08145399     1.34288191    -0.00018118    -0.00015326     0.00019412
H         0.92357548    -0.05161344    -0.65006927     0.00037603     0.00001742    -0.00123235
H         0.80139414    -0.06935935     1.92424219     0.00060752     0.00069248     0.00141058
H        -0.96106692     0.12911446     1.83359689     0.00180889     0.00057138     0.00003153
H        -1.03997113     0.01218722    -0.60257961     0.00059421    -0.00028710    -0.00054723
     6
  Step:    26            Position(A)                                  Velocity(au)
C        -0.03733611     0.03760040    -0.02408793    -0.00007178     0.00009390    -0.00018760
N        -0.03677565    -0.08229542     1.34391639    -0.00018804    -0.00015095     0.00017951
H         0.92540481    -0.05149698    -0.65671719     0.00028178     0.00002508    -0.00116548
H         0.80483424    -0.06553486     1.93207077     0.00062095     0.00068885     0.00140540
H        -0.95080109     0.13223486     1.83366933     0.00188263     0.00055974     0.00000230
H        -1.03642441     0.01057654    -0.60547897     0.00068310    -0.00029488    -0.00050118
     6
  Step:    27            Position(A)                                  Velocity(au)
C        -0.03772876     0.03811628    -0.02509706    -0.00006940     0.00009231    -0.00017646
N        -0.03782959    -0.08312549     1.34486962    -0.00019021    -0.00014898     0.00016449
H         0.92669568    -0.05133569    -0.66297481     0.00018218     0.00003352    -0.00109048
H         0.80827004    -0.06173162     1.93980445     0.00060621     0.00068371     0.00137515
H        -0.94022023     0.13531250     1.83362235     0.00191916     0.00055565    -0.00001090
H        -1.03240702     0.00892201    -0.60812931     0.00076270    -0.00030258    -0.00045695
     6
  Step:    28            Position(A)                                  Velocity(au)
C        -0.03810513     0.03862325    -0.02604319    -0.00006587     0.00009059    -0.00016468
N        -0.03888330    -0.08394620     1.34573911    -0.00018782    -0.00014744     0.00014907
H         0.92742345    -0.05112560    -0.66880048     0.00007927     0.00004260    -0.00100902
H         0.81155147    -0.05795890     1.94730839     0.00056605     0.00067694     0.00132203
H        -0.92953544     0.13839181     1.83354860     0.00191752     0.00056016    -0.00000685
H        -1.02797318     0.00722373    -0.61054231     0.00083209    -0.00031038    -0.00041532
     6
  Step:    29            Position(A)                                  Velocity(au)
C        -0.03845903     0.03912066    -0.02692282    -0.00006129     0.00008881    -0.00015234
N        -0.03991191    -0.08476009     1.34652231    -0.00018113    -0.00014642     0.00013322
H         0.92757453    -0.05086334    -0.67416162    -0.00002505     0.00005225    -0.00092276
H         0.81454567    -0.05422651     1.95446150     0.00050380     0.00066858     0.00124882
H        -0.91896102     0.14152290     1.83354636     0.00187804     0.00057415     0.00001508
H        -1.02318176     0.00548092    -0.61273387     0.00089068    -0.00031846    -0.00037701
     6
  Step:    30            Position(A)                                  Velocity(au)
C        -0.03878490     0.03960820    -0.02773281    -0.00005578     0.00008702    -0.00013952
N        -0.04089223    -0.08557017     1.34721659    -0.00017053    -0.00014603     0.00011693
H         0.92714558    -0.05054606    -0.67903466    -0.00012914     0.00006239    -0.00083326
H         0.81713907    -0.05054381     1.96115897     0.00042313     0.00065875     0.00115866
H        -0.90870634     0.14475969     1.83371584     0.00180231     0.00059825     0.00005492
H        -1.01809472     0.00369175    -0.61472371     0.00093814    -0.00032705    -0.00034265
     6
  Step:    31            Position(A)                                  Velocity(au)
C        -0.03907780     0.04008593    -0.02847049    -0.00004946     0.00008529    -0.00012629
N        -0.04180348    -0.08637992     1.34781938    -0.00015647    -0.00014633     0.00010023
H         0.92614208    -0.05017125    -0.68340454    -0.00023158     0.00007297    -0.00074193
H         0.81923926    -0.04691927     1.96731398     0.00032780     0.00064769     0.00105477
H        -0.89896878     0.14815896     1.83415558     0.00169317     0.00063281     0.00011204
H        -1.01277547     0.00185313    -0.61653477     0.00097437    -0.00033639    -0.00031276
     6
  Step:    32            Position(A)                                  Velocity(au)
C        -0.03933344     0.04055423    -0.02913356    -0.00004242     0.00008369    -0.00011270
N        -0.04262775    -0.08719318     1.34832826    -0.00013952    -0.00014738     0.00008314
H         0.92457698    -0.04973670    -0.68726382    -0.00033124     0.00008396    -0.00065001
H         0.82077487    -0.04335999     1.97285790     0.00022142     0.00063563     0.00094025
H        -0.88992651     0.15177845     1.83495849     0.00155458     0.00067785     0.00018507
H        -1.00728749    -0.00003931    -0.61819263     0.00099949    -0.00034673    -0.00028770
     6
  Step:    33            Position(A)                                  Velocity(au)
C        -0.03954813     0.04101387    -0.02972008    -0.00003477     0.00008226    -0.00009879
N        -0.04335040    -0.08801399     1.34874122    -0.00012025    -0.00014919     0.00006574
H         0.92246937    -0.04924029    -0.69061167    -0.00042715     0.00009536    -0.00055848
H         0.82169432    -0.03987153     1.97773925     0.00010732     0.00062284     0.00081796
H        -0.88173192     0.15567485     1.83620764     0.00139150     0.00073302     0.00027198
H        -1.00169339    -0.00199134    -0.61972473     0.00101368    -0.00035832    -0.00026775
     6
  Step:    34            Position(A)                                  Velocity(au)
C        -0.03971874     0.04146586    -0.03022836    -0.00002660     0.00008106    -0.00008460
N        -0.04396029    -0.08884643     1.34905677    -0.00009930    -0.00015175     0.00004813
H         0.91984343    -0.04867997    -0.69345271    -0.00051852     0.00010716    -0.00046817
H         0.82196415    -0.03645790     1.98192222    -0.00001148     0.00060955     0.00069045
H        -0.87450650     0.15990153     1.83797250     0.00120964     0.00079754     0.00037007
H        -0.99605429    -0.00401004    -0.62115973     0.00101721    -0.00037137    -0.00025304
     6
  Step:    35            Position(A)                                  Velocity(au)
C        -0.03984268     0.04191150    -0.03065684    -0.00001800     0.00008012    -0.00007011
N        -0.04444993    -0.08969441     1.34927414    -0.00007730    -0.00015501     0.00003042
H         0.91672755    -0.04805363    -0.69579588    -0.00060463     0.00011939    -0.00037970
H         0.82156715    -0.03312171     1.98538488    -0.00013228     0.00059596     0.00055995
H        -0.86833708     0.16450632     1.84030553     0.00101531     0.00087021     0.00047604
H        -0.99042944    -0.00610369    -0.62252675     0.00101035    -0.00038608    -0.00024358
     6
  Step:    36            Position(A)                                  Velocity(au)
C        -0.03991789     0.04235225    -0.03100408    -0.00000906     0.00007945    -0.00005535
N        -0.04481555    -0.09056147     1.34939338    -0.00005492    -0.00015888     0.00001280
H         0.91315397    -0.04735910    -0.69765359    -0.00068476     0.00013204    -0.00029358
H         0.82050063    -0.02986436     1.98811735    -0.00025261     0.00058221     0.00042842
H        -0.86327332     0.16952930     1.84323933     0.00081516     0.00094944     0.00058616
H        -0.98487603    -0.00828159    -0.62385466     0.00099340    -0.00040260    -0.00023926
     6
  Step:    37            Position(A)                                  Velocity(au)
C        -0.03994283     0.04278972    -0.03126861     0.00000012     0.00007909    -0.00004029
N        -0.04505700    -0.09145056     1.34941556    -0.00003279    -0.00016322    -0.00000458
H         0.90915864    -0.04659416    -0.69904098    -0.00075819     0.00014512    -0.00021028
H         0.81877501    -0.02668636     1.99012039    -0.00037017     0.00056841     0.00029765
H        -0.85932684     0.17500085     1.84678453     0.00061592     0.00103332     0.00069632
H        -0.97944906    -0.01055381    -0.62517133     0.00096667    -0.00042103    -0.00023982
     6
  Step:    38            Position(A)                                  Velocity(au)
C        -0.03991651     0.04322558    -0.03144904     0.00000945     0.00007902    -0.00002496
N        -0.04517767    -0.09236392     1.34934277    -0.00001154    -0.00016790    -0.00002152
H         0.90478140    -0.04575653    -0.69997562    -0.00082411     0.00015863    -0.00013020
H         0.81641291    -0.02358751     1.99140429    -0.00048278     0.00055465     0.00016931
H        -0.85647184     0.18094008     1.85092868     0.00042416     0.00111966     0.00080231
H        -0.97420125    -0.01293098    -0.62650298     0.00093054    -0.00044143    -0.00024492
     6
  Step:    39            Position(A)                                  Velocity(au)
C        -0.03983860     0.04366157    -0.03154398     0.00001879     0.00007927    -0.00000935
N        -0.04518431    -0.09330293     1.34917813     0.00000825    -0.00017274    -0.00003782
H         0.90006643    -0.04484399    -0.70047744    -0.00088164     0.00017255    -0.00005381
H         0.81344861    -0.02056709     1.99198832    -0.00058830     0.00054099     0.00004501
H        -0.85464724     0.18735376     1.85563621     0.00024598     0.00120615     0.00089997
H        -0.96918270    -0.01542395    -0.62787350     0.00088544    -0.00046379    -0.00025409
     6
  Step:    40            Position(A)                                  Velocity(au)
C        -0.03970942     0.04409939    -0.03155213     0.00002801     0.00007981     0.00000650
N        -0.04508670    -0.09426811     1.34892581     0.00002605    -0.00017758    -0.00005332
H         0.89506267    -0.04385438    -0.70056883    -0.00092981     0.00018685     0.00001838
H         0.80992781    -0.01762393     1.99190045    -0.00068459     0.00052751    -0.00007361
H        -0.85376029     0.19423596     1.86084948     0.00008677     0.00129042     0.00098542
H        -0.96444062    -0.01804357    -0.62930390     0.00083194    -0.00048809    -0.00026673
     6
  Step:    41            Position(A)                                  Velocity(au)
C        -0.03953010     0.04454074    -0.03147234     0.00003695     0.00008065     0.00002256
N        -0.04489737    -0.09525908     1.34859082     0.00004139    -0.00018227    -0.00006785
H         0.88982417    -0.04278572    -0.70027498    -0.00096764     0.00020149     0.00008582
H         0.80590759    -0.01475636     1.99117743    -0.00076953     0.00051430    -0.00018491
H        -0.85369140     0.20156825     1.86649102    -0.00004903     0.00137026     0.00105528
H        -0.96001852    -0.02080042    -0.63081163     0.00077078    -0.00051423    -0.00028215
     6
  Step:    42            Position(A)                                  Velocity(au)
C        -0.03930265     0.04498725    -0.03130375     0.00004545     0.00008177     0.00003877
N        -0.04463108    -0.09627464     1.34817886     0.00005389    -0.00018666    -0.00008131
H         0.88441021    -0.04163621    -0.69962403    -0.00099415     0.00021643     0.00014792
H         0.80145630    -0.01196217     1.98986484    -0.00084104     0.00050147    -0.00028721
H        -0.85430000     0.20932073     1.87246674    -0.00015809     0.00144367     0.00110681
H        -0.95595533    -0.02370454    -0.63240998     0.00070288    -0.00054209    -0.00029953
     6
  Step:    43            Position(A)                                  Velocity(au)
C        -0.03903000     0.04544047    -0.03104580     0.00005333     0.00008315     0.00005503
N        -0.04430443    -0.09731293     1.34769615     0.00006325    -0.00019063    -0.00009362
H         0.87888516    -0.04040427    -0.69864734    -0.00100844     0.00023162     0.00020406
H         0.79665327    -0.00923845     1.98801710    -0.00089716     0.00048919    -0.00037889
H        -0.85543089     0.21745355     1.87866973    -0.00023826     0.00150900     0.00113805
H        -0.95228441    -0.02676531    -0.63410751     0.00062938    -0.00057155    -0.00031799
     6
  Step:    44            Position(A)                                  Velocity(au)
C        -0.03871604     0.04590189    -0.03069840     0.00006042     0.00008479     0.00007128
N        -0.04393533    -0.09837152     1.34714909     0.00006929    -0.00019413    -0.00010476
H         0.87331795    -0.03908848    -0.69737952    -0.00100975     0.00024705     0.00025363
H         0.79158810    -0.00658141     1.98569722    -0.00093608     0.00047762    -0.00045841
H        -0.85692068     0.22591888     1.88498466    -0.00028858     0.00156502     0.00114786
H        -0.94903254    -0.02999125    -0.63590772     0.00055157    -0.00060243    -0.00033658
     6