     6
  Step:   600            Position(A)                                  Velocity(au)
C        -0.15236983    -0.12680112    -0.15595606    -0.00008646     0.00045064     0.00026517
N         0.02865437     0.06892749     1.51293214     0.00033455    -0.00029167    -0.00041171
H         0.86037083    -0.92123688    -0.87524554     0.00066761     0.00310056     0.00312251
H         1.06233527    -0.42048624     1.73191245    -0.00147392    -0.00365956    -0.00017250
H        -0.82172931     0.47748622     1.97455030    -0.00161884     0.00369700    -0.00035078
H        -0.89585046     0.74755163    -1.10533633    -0.00119355    -0.00445475    -0.00003782
