|===============================================================================
|
|  DFTB+ release 20.1
|
|  Copyright (C) 2006 - 2020  DFTB+ developers group
|
|===============================================================================
|
|  When publishing results obtained with DFTB+, please cite the following
|  reference:
|
|  * DFTB+, a software package for efficient approximate density functional
|    theory based atomistic simulations, J. Chem. Phys. 152, 124101 (2020).
|    [doi: 10.1063/1.5143190]
|
|  You should also cite additional publications crediting the parametrization
|  data you use. Please consult the documentation of the SK-files for the
|  references.
|
|===============================================================================

Reading input file 'dftb_in.hsd'
Parser version: 8

--------------------------------------------------------------------------------
Reading SK-files:
Done.


Processed input in HSD format written to 'dftb_pin.hsd'

Starting initialization...
--------------------------------------------------------------------------------
OpenMP threads:              1
Chosen random seed:          511320583
Mode:                        Static calculation
Self consistent charges:     Yes
SCC-tolerance:                 0.100000E-05
Max. scc iterations:                   1000
Shell resolved Hubbard:      No
Spin polarisation:           No
Nr. of up electrons:             6.000000
Nr. of down electrons:           6.000000
Periodic boundaries:         No
Electronic solver:           Relatively robust
Maximal SCC-cycles:                    1000
Initial charges:             Set automatically (system chrg:   0.100E+01)
Included shells:             C:  s, p
                             N:  s, p
                             H:  s
Spin coupling constants:     C   1(s)-1(s):  -0.455900E-01
                             C   1(s)-2(p):  -0.293000E-01
                             C   2(p)-1(s):  -0.293000E-01
                             C   2(p)-2(p):  -0.275500E-01
                             N   1(s)-1(s):  -0.468700E-01
                             N   1(s)-2(p):  -0.317000E-01
                             N   2(p)-1(s):  -0.317000E-01
                             N   2(p)-2(p):  -0.307200E-01
                             H   1(s)-1(s):  -0.792500E-01
Range separated hybrid:      Yes
  Screening parameter omega:   0.300000E+00
  Range separated algorithm:   MatrixBased
Extra options:
                             Mulliken analysis
                             Force calculation
Force type                   original
                             Eigenvector printing


REKS Calcuation:             Yes
SSR(2,2) Calcuation:         Yes
Energy Functional:           (PPS+OSS)/2
Number of Core Orbitals:                  5
Number of Active Orbitals:                2
Number of Basis:                         12
Number of States:                         2
State-Averaging Weight:          0.500000
                                 0.500000
State of Interest:                        2
Initial Guess:               Diagonalize H0 matrix
Newton-Raphson for FON opt:  Yes
NR max. Iterations:                      50
Level Shifting:              Yes
Shift Value:                     0.300000
W Scale Factor:              C  =    3.000000
                             N  =    3.000000
                             H  =    3.000000
Transition Dipole:           No
Gradient of Microstate:      No
CP-REKS Solver:              Preconditioned Conjugate-Gradient
CG max. Iterations:                     100
CG Tolerance:                  0.100000E-07
Memory for A and Hxc:        Direct Updating Without Saving
Non-Adiabatic Coupling:      Yes

--------------------------------------------------------------------------------

***  Geometry step: 0

  iSCC       reks energy        Diff energy         x_a       SCC error   
    1       -6.2386865925       0.0000000000     0.996437    1.12289867
    2       -6.2579008717      -0.0192142792     0.999503    0.11634595
    3       -6.2649783556      -0.0070774839     0.999920    0.07740910
    4       -6.2674937566      -0.0025154010     0.999982    0.04360733
    5       -6.2682098276      -0.0007160709     0.999993    0.02044391
    6       -6.2683941493      -0.0001843218     0.999996    0.00939411
    7       -6.2684454899      -0.0000513406     0.999997    0.00393670
    8       -6.2684628210      -0.0000173311     0.999997    0.00164994
    9       -6.2684700430      -0.0000072220     0.999997    0.00117190
   10       -6.2684736176      -0.0000035745     0.999997    0.00086091
   11       -6.2684756295      -0.0000020120     0.999997    0.00065066
   12       -6.2684768833      -0.0000012537     0.999997    0.00050496
   13       -6.2684777368      -0.0000008535     0.999997    0.00040237
   14       -6.2684783664      -0.0000006296     0.999997    0.00032923
   15       -6.2684788648      -0.0000004984     0.999997    0.00027650
   16       -6.2684792832      -0.0000004183     0.999997    0.00023805
   17       -6.2684796504      -0.0000003673     0.999997    0.00020964
   18       -6.2684799835      -0.0000003330     0.999997    0.00018836
   19       -6.2684802923      -0.0000003088     0.999997    0.00017218
   20       -6.2684805828      -0.0000002906     0.999997    0.00015966
   21       -6.2684808589      -0.0000002761     0.999997    0.00015364
   22       -6.2684811228      -0.0000002639     0.999997    0.00015113
   23       -6.2684813761      -0.0000002533     0.999997    0.00014870
   24       -6.2684816198      -0.0000002437     0.999997    0.00014634
   25       -6.2684818548      -0.0000002349     0.999997    0.00014406
   26       -6.2684820815      -0.0000002267     0.999997    0.00014186
   27       -6.2684823004      -0.0000002190     0.999997    0.00013973
   28       -6.2684825120      -0.0000002116     0.999997    0.00013766
   29       -6.2684827166      -0.0000002046     0.999997    0.00013564
   30       -6.2684829145      -0.0000001979     0.999997    0.00013369
   31       -6.2684831059      -0.0000001914     0.999997    0.00013178
   32       -6.2684832912      -0.0000001853     0.999997    0.00012991
   33       -6.2684834705      -0.0000001793     0.999997    0.00012809
   34       -6.2684836442      -0.0000001737     0.999997    0.00012631
   35       -6.2684838124      -0.0000001682     0.999997    0.00012457
   36       -6.2684839753      -0.0000001629     0.999997    0.00012286
   37       -6.2684841332      -0.0000001579     0.999997    0.00012119
   38       -6.2684842862      -0.0000001530     0.999997    0.00011955
   39       -6.2684844345      -0.0000001483     0.999997    0.00011794
   40       -6.2684845783      -0.0000001438     0.999997    0.00011637
   41       -6.2684847178      -0.0000001395     0.999997    0.00011482
   42       -6.2684848532      -0.0000001353     0.999997    0.00011331
   43       -6.2684849844      -0.0000001313     0.999997    0.00011182
   44       -6.2684851118      -0.0000001274     0.999997    0.00011036
   45       -6.2684852355      -0.0000001237     0.999997    0.00010893
   46       -6.2684853556      -0.0000001201     0.999997    0.00010752
   47       -6.2684854722      -0.0000001166     0.999997    0.00010614
   48       -6.2684855854      -0.0000001132     0.999997    0.00010478
   49       -6.2684856954      -0.0000001100     0.999997    0.00010345
   50       -6.2684858023      -0.0000001069     0.999997    0.00010215
   51       -6.2684859062      -0.0000001039     0.999997    0.00010086
   52       -6.2684860071      -0.0000001010     0.999997    0.00009960
   53       -6.2684861053      -0.0000000981     0.999997    0.00009836
   54       -6.2684862007      -0.0000000954     0.999997    0.00009715
   55       -6.2684862935      -0.0000000928     0.999997    0.00009595
   56       -6.2684863838      -0.0000000903     0.999997    0.00009478
   57       -6.2684864716      -0.0000000878     0.999997    0.00009362
   58       -6.2684865571      -0.0000000855     0.999997    0.00009249
   59       -6.2684866403      -0.0000000832     0.999997    0.00009138
   60       -6.2684867213      -0.0000000810     0.999997    0.00009028
   61       -6.2684868001      -0.0000000788     0.999997    0.00008921
   62       -6.2684868768      -0.0000000768     0.999997    0.00008815
   63       -6.2684869516      -0.0000000748     0.999997    0.00008711
   64       -6.2684870244      -0.0000000728     0.999997    0.00008609
   65       -6.2684870953      -0.0000000709     0.999997    0.00008508
   66       -6.2684871645      -0.0000000691     0.999997    0.00008409
   67       -6.2684872318      -0.0000000674     0.999997    0.00008312
   68       -6.2684872975      -0.0000000656     0.999997    0.00008217
   69       -6.2684873615      -0.0000000640     0.999997    0.00008123
   70       -6.2684874238      -0.0000000624     0.999997    0.00008030
   71       -6.2684874847      -0.0000000608     0.999997    0.00007940
   72       -6.2684875440      -0.0000000593     0.999997    0.00007850
   73       -6.2684876019      -0.0000000579     0.999997    0.00007762
   74       -6.2684876584      -0.0000000565     0.999997    0.00007676
   75       -6.2684877135      -0.0000000551     0.999997    0.00007591
   76       -6.2684877672      -0.0000000538     0.999997    0.00007507
   77       -6.2684878197      -0.0000000525     0.999997    0.00007425
   78       -6.2684878709      -0.0000000512     0.999997    0.00007343
   79       -6.2684879209      -0.0000000500     0.999997    0.00007264
   80       -6.2684879698      -0.0000000488     0.999997    0.00007185
   81       -6.2684880175      -0.0000000477     0.999997    0.00007108
   82       -6.2684880640      -0.0000000466     0.999997    0.00007032
   83       -6.2684881095      -0.0000000455     0.999997    0.00006957
   84       -6.2684881540      -0.0000000444     0.999997    0.00006883
   85       -6.2684881974      -0.0000000434     0.999997    0.00006811
   86       -6.2684882398      -0.0000000424     0.999997    0.00006739
   87       -6.2684882813      -0.0000000415     0.999997    0.00006669
   88       -6.2684883218      -0.0000000405     0.999997    0.00006599
   89       -6.2684883614      -0.0000000396     0.999997    0.00006531
   90       -6.2684884002      -0.0000000387     0.999997    0.00006464
   91       -6.2684884381      -0.0000000379     0.999997    0.00006398
   92       -6.2684884751      -0.0000000370     0.999997    0.00006333
   93       -6.2684885113      -0.0000000362     0.999997    0.00006268
   94       -6.2684885468      -0.0000000354     0.999997    0.00006205
   95       -6.2684885815      -0.0000000347     0.999997    0.00006143
   96       -6.2684886154      -0.0000000339     0.999997    0.00006081
   97       -6.2684886486      -0.0000000332     0.999997    0.00006021
   98       -6.2684886811      -0.0000000325     0.999997    0.00005961
   99       -6.2684887129      -0.0000000318     0.999997    0.00005902
  100       -6.2684887440      -0.0000000311     0.999997    0.00005845
  101       -6.2684887745      -0.0000000305     0.999997    0.00005788
  102       -6.2684888043      -0.0000000298     0.999997    0.00005731
  103       -6.2684888335      -0.0000000292     0.999997    0.00005676
  104       -6.2684888621      -0.0000000286     0.999997    0.00005621
  105       -6.2684888901      -0.0000000280     0.999997    0.00005567
  106       -6.2684889176      -0.0000000274     0.999997    0.00005514
  107       -6.2684889445      -0.0000000269     0.999997    0.00005462
  108       -6.2684889708      -0.0000000263     0.999997    0.00005410
  109       -6.2684889966      -0.0000000258     0.999997    0.00005360
  110       -6.2684890219      -0.0000000253     0.999997    0.00005309
  111       -6.2684890467      -0.0000000248     0.999997    0.00005260
  112       -6.2684890710      -0.0000000243     0.999997    0.00005211
  113       -6.2684890948      -0.0000000238     0.999997    0.00005163
  114       -6.2684891182      -0.0000000233     0.999997    0.00005116
  115       -6.2684891410      -0.0000000229     0.999997    0.00005069
  116       -6.2684891635      -0.0000000224     0.999997    0.00005023
  117       -6.2684891855      -0.0000000220     0.999997    0.00004977
  118       -6.2684892071      -0.0000000216     0.999997    0.00004932
  119       -6.2684892282      -0.0000000212     0.999997    0.00004888
  120       -6.2684892490      -0.0000000208     0.999997    0.00004844
  121       -6.2684892694      -0.0000000204     0.999997    0.00004801
  122       -6.2684892894      -0.0000000200     0.999997    0.00004758
  123       -6.2684893090      -0.0000000196     0.999997    0.00004716
  124       -6.2684893282      -0.0000000192     0.999997    0.00004675
  125       -6.2684893471      -0.0000000189     0.999997    0.00004634
  126       -6.2684893656      -0.0000000185     0.999997    0.00004594
  127       -6.2684893838      -0.0000000182     0.999997    0.00004554
  128       -6.2684894017      -0.0000000179     0.999997    0.00004515
  129       -6.2684894192      -0.0000000175     0.999997    0.00004476
  130       -6.2684894364      -0.0000000172     0.999997    0.00004438
  131       -6.2684894533      -0.0000000169     0.999997    0.00004400
  132       -6.2684894699      -0.0000000166     0.999997    0.00004362
  133       -6.2684894862      -0.0000000163     0.999997    0.00004326
  134       -6.2684895022      -0.0000000160     0.999997    0.00004289
  135       -6.2684895179      -0.0000000157     0.999997    0.00004253
  136       -6.2684895334      -0.0000000154     0.999997    0.00004218
  137       -6.2684895485      -0.0000000152     0.999997    0.00004183
  138       -6.2684895634      -0.0000000149     0.999997    0.00004148
  139       -6.2684895781      -0.0000000146     0.999997    0.00004114
  140       -6.2684895925      -0.0000000144     0.999997    0.00004080
  141       -6.2684896066      -0.0000000141     0.999997    0.00004047
  142       -6.2684896205      -0.0000000139     0.999997    0.00004014
  143       -6.2684896342      -0.0000000137     0.999997    0.00003982
  144       -6.2684896476      -0.0000000134     0.999997    0.00003950
  145       -6.2684896608      -0.0000000132     0.999997    0.00003918
  146       -6.2684896738      -0.0000000130     0.999997    0.00003887
  147       -6.2684896865      -0.0000000128     0.999997    0.00003856
  148       -6.2684896991      -0.0000000125     0.999997    0.00003825
  149       -6.2684897114      -0.0000000123     0.999997    0.00003795
  150       -6.2684897235      -0.0000000121     0.999997    0.00003765
  151       -6.2684897354      -0.0000000119     0.999997    0.00003736
  152       -6.2684897472      -0.0000000117     0.999997    0.00003706
  153       -6.2684897587      -0.0000000115     0.999997    0.00003678
  154       -6.2684897701      -0.0000000113     0.999997    0.00003649
  155       -6.2684897812      -0.0000000112     0.999997    0.00003621
  156       -6.2684897922      -0.0000000110     0.999997    0.00003593
  157       -6.2684898030      -0.0000000108     0.999997    0.00003566
  158       -6.2684898136      -0.0000000106     0.999997    0.00003539
  159       -6.2684898241      -0.0000000105     0.999997    0.00003512
  160       -6.2684898344      -0.0000000103     0.999997    0.00003485
  161       -6.2684898445      -0.0000000101     0.999997    0.00003459
  162       -6.2684898545      -0.0000000100     0.999997    0.00003433
  163       -6.2684898643      -0.0000000098     0.999997    0.00003408
  164       -6.2684898740      -0.0000000097     0.999996    0.00003382
  165       -6.2684898835      -0.0000000095     0.999996    0.00003357
  166       -6.2684898929      -0.0000000094     0.999996    0.00003333
  167       -6.2684899021      -0.0000000092     0.999996    0.00003308
  168       -6.2684899112      -0.0000000091     0.999996    0.00003284
  169       -6.2684899201      -0.0000000089     0.999996    0.00003260
  170       -6.2684899289      -0.0000000088     0.999996    0.00003236
  171       -6.2684899376      -0.0000000087     0.999996    0.00003213
  172       -6.2684899461      -0.0000000085     0.999996    0.00003190
  173       -6.2684899545      -0.0000000084     0.999996    0.00003167
  174       -6.2684899628      -0.0000000083     0.999996    0.00003144
  175       -6.2684899710      -0.0000000082     0.999996    0.00003122
  176       -6.2684899790      -0.0000000080     0.999996    0.00003100
  177       -6.2684899869      -0.0000000079     0.999996    0.00003078
  178       -6.2684899947      -0.0000000078     0.999996    0.00003056
  179       -6.2684900024      -0.0000000077     0.999996    0.00003035
  180       -6.2684900100      -0.0000000076     0.999996    0.00003014
  181       -6.2684900174      -0.0000000075     0.999996    0.00002993
  182       -6.2684900248      -0.0000000074     0.999996    0.00002972
  183       -6.2684900321      -0.0000000072     0.999996    0.00002952
  184       -6.2684900392      -0.0000000071     0.999996    0.00002931
  185       -6.2684900462      -0.0000000070     0.999996    0.00002911
  186       -6.2684900532      -0.0000000069     0.999996    0.00002891
  187       -6.2684900600      -0.0000000068     0.999996    0.00002872
  188       -6.2684900668      -0.0000000067     0.999996    0.00002852
  189       -6.2684900734      -0.0000000066     0.999996    0.00002833
  190       -6.2684900800      -0.0000000066     0.999996    0.00002814
  191       -6.2684900864      -0.0000000065     0.999996    0.00002795
  192       -6.2684900928      -0.0000000064     0.999996    0.00002777
  193       -6.2684900991      -0.0000000063     0.999996    0.00002758
  194       -6.2684901053      -0.0000000062     0.999996    0.00002740
  195       -6.2684901114      -0.0000000061     0.999996    0.00002722
  196       -6.2684901174      -0.0000000060     0.999996    0.00002704
  197       -6.2684901234      -0.0000000059     0.999996    0.00002686
  198       -6.2684901292      -0.0000000059     0.999996    0.00002669
  199       -6.2684901350      -0.0000000058     0.999996    0.00002651
  200       -6.2684901407      -0.0000000057     0.999996    0.00002634
  201       -6.2684901464      -0.0000000056     0.999996    0.00002617
  202       -6.2684901519      -0.0000000056     0.999996    0.00002600
  203       -6.2684901574      -0.0000000055     0.999996    0.00002584
  204       -6.2684901628      -0.0000000054     0.999996    0.00002567
  205       -6.2684901681      -0.0000000053     0.999996    0.00002551
  206       -6.2684901734      -0.0000000053     0.999996    0.00002535
  207       -6.2684901786      -0.0000000052     0.999996    0.00002519
  208       -6.2684901837      -0.0000000051     0.999996    0.00002503
  209       -6.2684901888      -0.0000000051     0.999996    0.00002487
  210       -6.2684901938      -0.0000000050     0.999996    0.00002472
  211       -6.2684901987      -0.0000000049     0.999996    0.00002456
  212       -6.2684902036      -0.0000000049     0.999996    0.00002441
  213       -6.2684902084      -0.0000000048     0.999996    0.00002426
  214       -6.2684902131      -0.0000000047     0.999996    0.00002411
  215       -6.2684902178      -0.0000000047     0.999996    0.00002396
  216       -6.2684902224      -0.0000000046     0.999996    0.00002382
  217       -6.2684902270      -0.0000000046     0.999996    0.00002367
  218       -6.2684902315      -0.0000000045     0.999996    0.00002353
  219       -6.2684902359      -0.0000000044     0.999996    0.00002339
  220       -6.2684902403      -0.0000000044     0.999996    0.00002324
  221       -6.2684902446      -0.0000000043     0.999996    0.00002310
  222       -6.2684902489      -0.0000000043     0.999996    0.00002297
  223       -6.2684902532      -0.0000000042     0.999996    0.00002283
  224       -6.2684902573      -0.0000000042     0.999996    0.00002269
  225       -6.2684902615      -0.0000000041     0.999996    0.00002256
  226       -6.2684902655      -0.0000000041     0.999996    0.00002243
  227       -6.2684902696      -0.0000000040     0.999996    0.00002229
  228       -6.2684902735      -0.0000000040     0.999996    0.00002216
  229       -6.2684902775      -0.0000000039     0.999996    0.00002203
  230       -6.2684902813      -0.0000000039     0.999996    0.00002191
  231       -6.2684902852      -0.0000000038     0.999996    0.00002178
  232       -6.2684902889      -0.0000000038     0.999996    0.00002165
  233       -6.2684902927      -0.0000000037     0.999996    0.00002153
  234       -6.2684902964      -0.0000000037     0.999996    0.00002140
  235       -6.2684903000      -0.0000000037     0.999996    0.00002128
  236       -6.2684903036      -0.0000000036     0.999996    0.00002116
  237       -6.2684903072      -0.0000000036     0.999996    0.00002104
  238       -6.2684903107      -0.0000000035     0.999996    0.00002092
  239       -6.2684903142      -0.0000000035     0.999996    0.00002080
  240       -6.2684903177      -0.0000000034     0.999996    0.00002069
  241       -6.2684903211      -0.0000000034     0.999996    0.00002057
  242       -6.2684903244      -0.0000000034     0.999996    0.00002046
  243       -6.2684903277      -0.0000000033     0.999996    0.00002034
  244       -6.2684903310      -0.0000000033     0.999996    0.00002023
  245       -6.2684903343      -0.0000000032     0.999996    0.00002012
  246       -6.2684903375      -0.0000000032     0.999996    0.00002001
  247       -6.2684903407      -0.0000000032     0.999996    0.00001990
  248       -6.2684903438      -0.0000000031     0.999996    0.00001979
  249       -6.2684903469      -0.0000000031     0.999996    0.00001968
  250       -6.2684903500      -0.0000000031     0.999996    0.00001957
  251       -6.2684903530      -0.0000000030     0.999996    0.00001947
  252       -6.2684903560      -0.0000000030     0.999996    0.00001936
  253       -6.2684903590      -0.0000000030     0.999996    0.00001926
  254       -6.2684903619      -0.0000000029     0.999996    0.00001915
  255       -6.2684903648      -0.0000000029     0.999996    0.00001905
  256       -6.2684903676      -0.0000000029     0.999996    0.00001895
  257       -6.2684903705      -0.0000000028     0.999996    0.00001885
  258       -6.2684903733      -0.0000000028     0.999996    0.00001875
  259       -6.2684903761      -0.0000000028     0.999996    0.00001865
  260       -6.2684903788      -0.0000000027     0.999996    0.00001855
  261       -6.2684903815      -0.0000000027     0.999996    0.00001845
  262       -6.2684903842      -0.0000000027     0.999996    0.00001836
  263       -6.2684903869      -0.0000000027     0.999996    0.00001826
  264       -6.2684903895      -0.0000000026     0.999996    0.00001817
  265       -6.2684903921      -0.0000000026     0.999996    0.00001807
  266       -6.2684903946      -0.0000000026     0.999996    0.00001798
  267       -6.2684903972      -0.0000000025     0.999996    0.00001789
  268       -6.2684903997      -0.0000000025     0.999996    0.00001780
  269       -6.2684904022      -0.0000000025     0.999996    0.00001771
  270       -6.2684904047      -0.0000000025     0.999996    0.00001761
  271       -6.2684904071      -0.0000000024     0.999996    0.00001753
  272       -6.2684904095      -0.0000000024     0.999996    0.00001744
  273       -6.2684904119      -0.0000000024     0.999996    0.00001735
  274       -6.2684904142      -0.0000000024     0.999996    0.00001726
  275       -6.2684904166      -0.0000000023     0.999996    0.00001718
  276       -6.2684904189      -0.0000000023     0.999996    0.00001709
  277       -6.2684904212      -0.0000000023     0.999996    0.00001700
  278       -6.2684904234      -0.0000000023     0.999996    0.00001692
  279       -6.2684904257      -0.0000000022     0.999996    0.00001684
  280       -6.2684904279      -0.0000000022     0.999996    0.00001675
  281       -6.2684904301      -0.0000000022     0.999996    0.00001667
  282       -6.2684904323      -0.0000000022     0.999996    0.00001659
  283       -6.2684904344      -0.0000000022     0.999996    0.00001651
  284       -6.2684904366      -0.0000000021     0.999996    0.00001643
  285       -6.2684904387      -0.0000000021     0.999996    0.00001635
  286       -6.2684904407      -0.0000000021     0.999996    0.00001627
  287       -6.2684904428      -0.0000000021     0.999996    0.00001619
  288       -6.2684904449      -0.0000000020     0.999996    0.00001611
  289       -6.2684904469      -0.0000000020     0.999996    0.00001603
  290       -6.2684904489      -0.0000000020     0.999996    0.00001596
  291       -6.2684904509      -0.0000000020     0.999996    0.00001588
  292       -6.2684904528      -0.0000000020     0.999996    0.00001581
  293       -6.2684904548      -0.0000000019     0.999996    0.00001573
  294       -6.2684904567      -0.0000000019     0.999996    0.00001566
  295       -6.2684904586      -0.0000000019     0.999996    0.00001558
  296       -6.2684904605      -0.0000000019     0.999996    0.00001551
  297       -6.2684904624      -0.0000000019     0.999996    0.00001544
  298       -6.2684904642      -0.0000000019     0.999996    0.00001537
  299       -6.2684904661      -0.0000000018     0.999996    0.00001529
  300       -6.2684904679      -0.0000000018     0.999996    0.00001522
  301       -6.2684904697      -0.0000000018     0.999996    0.00001515
  302       -6.2684904715      -0.0000000018     0.999996    0.00001508
  303       -6.2684904732      -0.0000000018     0.999996    0.00001501
  304       -6.2684904750      -0.0000000018     0.999996    0.00001495
  305       -6.2684904767      -0.0000000017     0.999996    0.00001488
  306       -6.2684904784      -0.0000000017     0.999996    0.00001481
  307       -6.2684904802      -0.0000000017     0.999996    0.00001474
  308       -6.2684904818      -0.0000000017     0.999996    0.00001468
  309       -6.2684904835      -0.0000000017     0.999996    0.00001461
  310       -6.2684904852      -0.0000000017     0.999996    0.00001454
  311       -6.2684904868      -0.0000000016     0.999996    0.00001448
  312       -6.2684904884      -0.0000000016     0.999996    0.00001441
  313       -6.2684904900      -0.0000000016     0.999996    0.00001435
  314       -6.2684904916      -0.0000000016     0.999996    0.00001429
  315       -6.2684904932      -0.0000000016     0.999996    0.00001422
  316       -6.2684904948      -0.0000000016     0.999996    0.00001416
  317       -6.2684904963      -0.0000000016     0.999996    0.00001410
  318       -6.2684904979      -0.0000000015     0.999996    0.00001404
  319       -6.2684904994      -0.0000000015     0.999996    0.00001398
  320       -6.2684905009      -0.0000000015     0.999996    0.00001391
  321       -6.2684905024      -0.0000000015     0.999996    0.00001385
  322       -6.2684905039      -0.0000000015     0.999996    0.00001379
  323       -6.2684905053      -0.0000000015     0.999996    0.00001373
  324       -6.2684905068      -0.0000000015     0.999996    0.00001368
  325       -6.2684905082      -0.0000000014     0.999996    0.00001362
  326       -6.2684905097      -0.0000000014     0.999996    0.00001356
  327       -6.2684905111      -0.0000000014     0.999996    0.00001350
  328       -6.2684905125      -0.0000000014     0.999996    0.00001344
  329       -6.2684905139      -0.0000000014     0.999996    0.00001339
  330       -6.2684905153      -0.0000000014     0.999996    0.00001333
  331       -6.2684905166      -0.0000000014     0.999996    0.00001327
  332       -6.2684905180      -0.0000000014     0.999996    0.00001322
  333       -6.2684905193      -0.0000000013     0.999996    0.00001316
  334       -6.2684905207      -0.0000000013     0.999996    0.00001311
  335       -6.2684905220      -0.0000000013     0.999996    0.00001305
  336       -6.2684905233      -0.0000000013     0.999996    0.00001300
  337       -6.2684905246      -0.0000000013     0.999996    0.00001294
  338       -6.2684905259      -0.0000000013     0.999996    0.00001289
  339       -6.2684905272      -0.0000000013     0.999996    0.00001284
  340       -6.2684905284      -0.0000000013     0.999996    0.00001279
  341       -6.2684905297      -0.0000000013     0.999996    0.00001273
  342       -6.2684905309      -0.0000000012     0.999996    0.00001268
  343       -6.2684905322      -0.0000000012     0.999996    0.00001263
  344       -6.2684905334      -0.0000000012     0.999996    0.00001258
  345       -6.2684905346      -0.0000000012     0.999996    0.00001253
  346       -6.2684905358      -0.0000000012     0.999996    0.00001248
  347       -6.2684905370      -0.0000000012     0.999996    0.00001243
  348       -6.2684905382      -0.0000000012     0.999996    0.00001238
  349       -6.2684905394      -0.0000000012     0.999996    0.00001233
  350       -6.2684905405      -0.0000000012     0.999996    0.00001228
  351       -6.2684905417      -0.0000000012     0.999996    0.00001223
  352       -6.2684905428      -0.0000000011     0.999996    0.00001218
  353       -6.2684905440      -0.0000000011     0.999996    0.00001213
  354       -6.2684905451      -0.0000000011     0.999996    0.00001209
  355       -6.2684905462      -0.0000000011     0.999996    0.00001204
  356       -6.2684905473      -0.0000000011     0.999996    0.00001199
  357       -6.2684905484      -0.0000000011     0.999996    0.00001194
  358       -6.2684905495      -0.0000000011     0.999996    0.00001190
  359       -6.2684905506      -0.0000000011     0.999996    0.00001185
  360       -6.2684905517      -0.0000000011     0.999996    0.00001181
  361       -6.2684905527      -0.0000000011     0.999996    0.00001176
  362       -6.2684905538      -0.0000000011     0.999996    0.00001172
  363       -6.2684905548      -0.0000000010     0.999996    0.00001167
  364       -6.2684905559      -0.0000000010     0.999996    0.00001163
  365       -6.2684905569      -0.0000000010     0.999996    0.00001158
  366       -6.2684905579      -0.0000000010     0.999996    0.00001154
  367       -6.2684905590      -0.0000000010     0.999996    0.00001149
  368       -6.2684905600      -0.0000000010     0.999996    0.00001145
  369       -6.2684905610      -0.0000000010     0.999996    0.00001141
  370       -6.2684905620      -0.0000000010     0.999996    0.00001136
  371       -6.2684905629      -0.0000000010     0.999996    0.00001132
  372       -6.2684905639      -0.0000000010     0.999996    0.00001128
  373       -6.2684905649      -0.0000000010     0.999996    0.00001124
  374       -6.2684905658      -0.0000000010     0.999996    0.00001120
  375       -6.2684905668      -0.0000000010     0.999996    0.00001115
  376       -6.2684905677      -0.0000000009     0.999996    0.00001111
  377       -6.2684905687      -0.0000000009     0.999996    0.00001107
  378       -6.2684905696      -0.0000000009     0.999996    0.00001103
  379       -6.2684905705      -0.0000000009     0.999996    0.00001099
  380       -6.2684905715      -0.0000000009     0.999996    0.00001095
  381       -6.2684905724      -0.0000000009     0.999996    0.00001091
  382       -6.2684905733      -0.0000000009     0.999996    0.00001087
  383       -6.2684905742      -0.0000000009     0.999996    0.00001083
  384       -6.2684905751      -0.0000000009     0.999996    0.00001079
  385       -6.2684905760      -0.0000000009     0.999996    0.00001075
  386       -6.2684905768      -0.0000000009     0.999996    0.00001072
  387       -6.2684905777      -0.0000000009     0.999996    0.00001068
  388       -6.2684905786      -0.0000000009     0.999996    0.00001064
  389       -6.2684905794      -0.0000000009     0.999996    0.00001060
  390       -6.2684905803      -0.0000000009     0.999996    0.00001056
  391       -6.2684905811      -0.0000000008     0.999996    0.00001053
  392       -6.2684905820      -0.0000000008     0.999996    0.00001049
  393       -6.2684905828      -0.0000000008     0.999996    0.00001045
  394       -6.2684905836      -0.0000000008     0.999996    0.00001042
  395       -6.2684905845      -0.0000000008     0.999996    0.00001038
  396       -6.2684905853      -0.0000000008     0.999996    0.00001034
  397       -6.2684905861      -0.0000000008     0.999996    0.00001031
  398       -6.2684905869      -0.0000000008     0.999996    0.00001027
  399       -6.2684905877      -0.0000000008     0.999996    0.00001024
  400       -6.2684905885      -0.0000000008     0.999996    0.00001020
  401       -6.2684905893      -0.0000000008     0.999996    0.00001017
  402       -6.2684905901      -0.0000000008     0.999996    0.00001013
  403       -6.2684905908      -0.0000000008     0.999996    0.00001010
  404       -6.2684905916      -0.0000000008     0.999996    0.00001006
  405       -6.2684905924      -0.0000000008     0.999996    0.00001003
  406       -6.2684905931      -0.0000000008     0.999996    0.00000999
  407       -6.2684905939      -0.0000000008     0.999996    0.00000996
  408       -6.2684905947      -0.0000000008     0.999996    0.00000993
  409       -6.2684905954      -0.0000000007     0.999996    0.00000989
  410       -6.2684905961      -0.0000000007     0.999996    0.00000986
  411       -6.2684905969      -0.0000000007     0.999996    0.00000983
  412       -6.2684905976      -0.0000000007     0.999996    0.00000979
  413       -6.2684905983      -0.0000000007     0.999996    0.00000976
  414       -6.2684905990      -0.0000000007     0.999996    0.00000973
  415       -6.2684905998      -0.0000000007     0.999996    0.00000970
  416       -6.2684906005      -0.0000000007     0.999996    0.00000967
  417       -6.2684906012      -0.0000000007     0.999996    0.00000963
  418       -6.2684906019      -0.0000000007     0.999996    0.00000960
  419       -6.2684906026      -0.0000000007     0.999996    0.00000957
  420       -6.2684906033      -0.0000000007     0.999996    0.00000954
  421       -6.2684906040      -0.0000000007     0.999996    0.00000951
  422       -6.2684906046      -0.0000000007     0.999996    0.00000948
  423       -6.2684906053      -0.0000000007     0.999996    0.00000945
  424       -6.2684906060      -0.0000000007     0.999996    0.00000942
  425       -6.2684906067      -0.0000000007     0.999996    0.00000939
  426       -6.2684906073      -0.0000000007     0.999996    0.00000936
  427       -6.2684906080      -0.0000000007     0.999996    0.00000933
  428       -6.2684906086      -0.0000000007     0.999996    0.00000930
  429       -6.2684906093      -0.0000000007     0.999996    0.00000927
  430       -6.2684906099      -0.0000000006     0.999996    0.00000924
  431       -6.2684906106      -0.0000000006     0.999996    0.00000921
  432       -6.2684906112      -0.0000000006     0.999996    0.00000918
  433       -6.2684906119      -0.0000000006     0.999996    0.00000915
  434       -6.2684906125      -0.0000000006     0.999996    0.00000912
  435       -6.2684906131      -0.0000000006     0.999996    0.00000909
  436       -6.2684906137      -0.0000000006     0.999996    0.00000907
  437       -6.2684906144      -0.0000000006     0.999996    0.00000904
  438       -6.2684906150      -0.0000000006     0.999996    0.00000901
  439       -6.2684906156      -0.0000000006     0.999996    0.00000898
  440       -6.2684906162      -0.0000000006     0.999996    0.00000895
  441       -6.2684906168      -0.0000000006     0.999996    0.00000893
  442       -6.2684906174      -0.0000000006     0.999996    0.00000890
  443       -6.2684906180      -0.0000000006     0.999996    0.00000887
  444       -6.2684906186      -0.0000000006     0.999996    0.00000885
  445       -6.2684906192      -0.0000000006     0.999996    0.00000882
  446       -6.2684906197      -0.0000000006     0.999996    0.00000879
  447       -6.2684906203      -0.0000000006     0.999996    0.00000877
  448       -6.2684906209      -0.0000000006     0.999996    0.00000874
  449       -6.2684906215      -0.0000000006     0.999996    0.00000871
  450       -6.2684906220      -0.0000000006     0.999996    0.00000869
  451       -6.2684906226      -0.0000000006     0.999996    0.00000866
  452       -6.2684906232      -0.0000000006     0.999996    0.00000864
  453       -6.2684906237      -0.0000000006     0.999996    0.00000861
  454       -6.2684906243      -0.0000000006     0.999996    0.00000858
  455       -6.2684906248      -0.0000000006     0.999996    0.00000856
  456       -6.2684906254      -0.0000000005     0.999996    0.00000853
  457       -6.2684906259      -0.0000000005     0.999996    0.00000851
  458       -6.2684906265      -0.0000000005     0.999996    0.00000848
  459       -6.2684906270      -0.0000000005     0.999996    0.00000846
  460       -6.2684906276      -0.0000000005     0.999996    0.00000843
  461       -6.2684906281      -0.0000000005     0.999996    0.00000841
  462       -6.2684906286      -0.0000000005     0.999996    0.00000839
  463       -6.2684906291      -0.0000000005     0.999996    0.00000836
  464       -6.2684906297      -0.0000000005     0.999996    0.00000834
  465       -6.2684906302      -0.0000000005     0.999996    0.00000831
  466       -6.2684906307      -0.0000000005     0.999996    0.00000829
  467       -6.2684906312      -0.0000000005     0.999996    0.00000827
  468       -6.2684906317      -0.0000000005     0.999996    0.00000824
  469       -6.2684906322      -0.0000000005     0.999996    0.00000822
  470       -6.2684906328      -0.0000000005     0.999996    0.00000820
  471       -6.2684906333      -0.0000000005     0.999996    0.00000817
  472       -6.2684906338      -0.0000000005     0.999996    0.00000815
  473       -6.2684906343      -0.0000000005     0.999996    0.00000813
  474       -6.2684906347      -0.0000000005     0.999996    0.00000811
  475       -6.2684906352      -0.0000000005     0.999996    0.00000808
  476       -6.2684906357      -0.0000000005     0.999996    0.00000806
  477       -6.2684906362      -0.0000000005     0.999996    0.00000804
  478       -6.2684906367      -0.0000000005     0.999996    0.00000802
  479       -6.2684906372      -0.0000000005     0.999996    0.00000799
  480       -6.2684906377      -0.0000000005     0.999996    0.00000797
  481       -6.2684906381      -0.0000000005     0.999996    0.00000795
  482       -6.2684906386      -0.0000000005     0.999996    0.00000793
  483       -6.2684906391      -0.0000000005     0.999996    0.00000791
  484       -6.2684906395      -0.0000000005     0.999996    0.00000788
  485       -6.2684906400      -0.0000000005     0.999996    0.00000786
  486       -6.2684906405      -0.0000000005     0.999996    0.00000784
  487       -6.2684906409      -0.0000000005     0.999996    0.00000782
  488       -6.2684906414      -0.0000000005     0.999996    0.00000780
  489       -6.2684906418      -0.0000000005     0.999996    0.00000778
  490       -6.2684906423      -0.0000000005     0.999996    0.00000776
  491       -6.2684906427      -0.0000000004     0.999996    0.00000774
  492       -6.2684906432      -0.0000000004     0.999996    0.00000772
  493       -6.2684906436      -0.0000000004     0.999996    0.00000770
  494       -6.2684906441      -0.0000000004     0.999996    0.00000768
  495       -6.2684906445      -0.0000000004     0.999996    0.00000766
  496       -6.2684906449      -0.0000000004     0.999996    0.00000764
  497       -6.2684906454      -0.0000000004     0.999996    0.00000762
  498       -6.2684906458      -0.0000000004     0.999996    0.00000760
  499       -6.2684906462      -0.0000000004     0.999996    0.00000758
  500       -6.2684906467      -0.0000000004     0.999996    0.00000756
  501       -6.2684906471      -0.0000000004     0.999996    0.00000754
  502       -6.2684906475      -0.0000000004     0.999996    0.00000752
  503       -6.2684906479      -0.0000000004     0.999996    0.00000750
  504       -6.2684906484      -0.0000000004     0.999996    0.00000748
  505       -6.2684906488      -0.0000000004     0.999996    0.00000746
  506       -6.2684906492      -0.0000000004     0.999996    0.00000744
  507       -6.2684906496      -0.0000000004     0.999996    0.00000742
  508       -6.2684906500      -0.0000000004     0.999996    0.00000740
  509       -6.2684906504      -0.0000000004     0.999996    0.00000739
  510       -6.2684906508      -0.0000000004     0.999996    0.00000737
  511       -6.2684906512      -0.0000000004     0.999996    0.00000735
  512       -6.2684906516      -0.0000000004     0.999996    0.00000733
  513       -6.2684906520      -0.0000000004     0.999996    0.00000731
  514       -6.2684906524      -0.0000000004     0.999996    0.00000729
  515       -6.2684906528      -0.0000000004     0.999996    0.00000728
  516       -6.2684906532      -0.0000000004     0.999996    0.00000726
  517       -6.2684906536      -0.0000000004     0.999996    0.00000724
  518       -6.2684906540      -0.0000000004     0.999996    0.00000722
  519       -6.2684906544      -0.0000000004     0.999996    0.00000720
  520       -6.2684906548      -0.0000000004     0.999996    0.00000719
  521       -6.2684906551      -0.0000000004     0.999996    0.00000717
  522       -6.2684906555      -0.0000000004     0.999996    0.00000715
  523       -6.2684906559      -0.0000000004     0.999996    0.00000713
  524       -6.2684906563      -0.0000000004     0.999996    0.00000712
  525       -6.2684906567      -0.0000000004     0.999996    0.00000710
  526       -6.2684906570      -0.0000000004     0.999996    0.00000708
  527       -6.2684906574      -0.0000000004     0.999996    0.00000707
  528       -6.2684906578      -0.0000000004     0.999996    0.00000705
  529       -6.2684906581      -0.0000000004     0.999996    0.00000703
  530       -6.2684906585      -0.0000000004     0.999996    0.00000701
  531       -6.2684906589      -0.0000000004     0.999996    0.00000700
  532       -6.2684906592      -0.0000000004     0.999996    0.00000698
  533       -6.2684906596      -0.0000000004     0.999996    0.00000697
  534       -6.2684906600      -0.0000000004     0.999996    0.00000695
  535       -6.2684906603      -0.0000000004     0.999996    0.00000693
  536       -6.2684906607      -0.0000000004     0.999996    0.00000692
  537       -6.2684906610      -0.0000000004     0.999996    0.00000690
  538       -6.2684906614      -0.0000000004     0.999996    0.00000688
  539       -6.2684906617      -0.0000000004     0.999996    0.00000687
  540       -6.2684906621      -0.0000000003     0.999996    0.00000685
  541       -6.2684906624      -0.0000000003     0.999996    0.00000684
  542       -6.2684906628      -0.0000000003     0.999996    0.00000682
  543       -6.2684906631      -0.0000000003     0.999996    0.00000681
  544       -6.2684906635      -0.0000000003     0.999996    0.00000679
  545       -6.2684906638      -0.0000000003     0.999996    0.00000677
  546       -6.2684906641      -0.0000000003     0.999996    0.00000676
  547       -6.2684906645      -0.0000000003     0.999996    0.00000674
  548       -6.2684906648      -0.0000000003     0.999996    0.00000673
  549       -6.2684906652      -0.0000000003     0.999996    0.00000671
  550       -6.2684906655      -0.0000000003     0.999996    0.00000670
  551       -6.2684906658      -0.0000000003     0.999996    0.00000668
  552       -6.2684906662      -0.0000000003     0.999996    0.00000667
  553       -6.2684906665      -0.0000000003     0.999996    0.00000665
  554       -6.2684906668      -0.0000000003     0.999996    0.00000664
  555       -6.2684906671      -0.0000000003     0.999996    0.00000662
  556       -6.2684906675      -0.0000000003     0.999996    0.00000661
  557       -6.2684906678      -0.0000000003     0.999996    0.00000660
  558       -6.2684906681      -0.0000000003     0.999996    0.00000658
  559       -6.2684906684      -0.0000000003     0.999996    0.00000657
  560       -6.2684906687      -0.0000000003     0.999996    0.00000655
  561       -6.2684906691      -0.0000000003     0.999996    0.00000654
  562       -6.2684906694      -0.0000000003     0.999996    0.00000652
  563       -6.2684906697      -0.0000000003     0.999996    0.00000651
  564       -6.2684906700      -0.0000000003     0.999996    0.00000650
  565       -6.2684906703      -0.0000000003     0.999996    0.00000648
  566       -6.2684906706      -0.0000000003     0.999996    0.00000647
  567       -6.2684906709      -0.0000000003     0.999996    0.00000645
  568       -6.2684906712      -0.0000000003     0.999996    0.00000644
  569       -6.2684906715      -0.0000000003     0.999996    0.00000643
  570       -6.2684906719      -0.0000000003     0.999996    0.00000641
  571       -6.2684906722      -0.0000000003     0.999996    0.00000640
  572       -6.2684906725      -0.0000000003     0.999996    0.00000639
  573       -6.2684906728      -0.0000000003     0.999996    0.00000637
  574       -6.2684906731      -0.0000000003     0.999996    0.00000636
  575       -6.2684906734      -0.0000000003     0.999996    0.00000635
  576       -6.2684906737      -0.0000000003     0.999996    0.00000633
  577       -6.2684906740      -0.0000000003     0.999996    0.00000632
  578       -6.2684906742      -0.0000000003     0.999996    0.00000631
  579       -6.2684906745      -0.0000000003     0.999996    0.00000629
  580       -6.2684906748      -0.0000000003     0.999996    0.00000628
  581       -6.2684906751      -0.0000000003     0.999996    0.00000627
  582       -6.2684906754      -0.0000000003     0.999996    0.00000626
  583       -6.2684906757      -0.0000000003     0.999996    0.00000624
  584       -6.2684906760      -0.0000000003     0.999996    0.00000623
  585       -6.2684906763      -0.0000000003     0.999996    0.00000622
  586       -6.2684906766      -0.0000000003     0.999996    0.00000620
  587       -6.2684906768      -0.0000000003     0.999996    0.00000619
  588       -6.2684906771      -0.0000000003     0.999996    0.00000618
  589       -6.2684906774      -0.0000000003     0.999996    0.00000617
  590       -6.2684906777      -0.0000000003     0.999996    0.00000616
  591       -6.2684906780      -0.0000000003     0.999996    0.00000614
  592       -6.2684906782      -0.0000000003     0.999996    0.00000613
  593       -6.2684906785      -0.0000000003     0.999996    0.00000612
  594       -6.2684906788      -0.0000000003     0.999996    0.00000611
  595       -6.2684906791      -0.0000000003     0.999996    0.00000610
  596       -6.2684906793      -0.0000000003     0.999996    0.00000608
  597       -6.2684906796      -0.0000000003     0.999996    0.00000607
  598       -6.2684906799      -0.0000000003     0.999996    0.00000606
  599       -6.2684906802      -0.0000000003     0.999996    0.00000605
  600       -6.2684906804      -0.0000000003     0.999996    0.00000604
  601       -6.2684906807      -0.0000000003     0.999996    0.00000602
  602       -6.2684906810      -0.0000000003     0.999996    0.00000601
  603       -6.2684906812      -0.0000000003     0.999996    0.00000600
  604       -6.2684906815      -0.0000000003     0.999996    0.00000599
  605       -6.2684906818      -0.0000000003     0.999996    0.00000598
  606       -6.2684906820      -0.0000000003     0.999996    0.00000597
  607       -6.2684906823      -0.0000000003     0.999996    0.00000596
  608       -6.2684906825      -0.0000000003     0.999996    0.00000595
  609       -6.2684906828      -0.0000000003     0.999996    0.00000593
  610       -6.2684906831      -0.0000000003     0.999996    0.00000592
  611       -6.2684906833      -0.0000000003     0.999996    0.00000591
  612       -6.2684906836      -0.0000000003     0.999996    0.00000590
  613       -6.2684906838      -0.0000000003     0.999996    0.00000589
  614       -6.2684906841      -0.0000000003     0.999996    0.00000588
  615       -6.2684906843      -0.0000000003     0.999996    0.00000587
  616       -6.2684906846      -0.0000000003     0.999996    0.00000586
  617       -6.2684906848      -0.0000000003     0.999996    0.00000585
  618       -6.2684906851      -0.0000000003     0.999996    0.00000584
  619       -6.2684906853      -0.0000000003     0.999996    0.00000583
  620       -6.2684906856      -0.0000000002     0.999996    0.00000582
  621       -6.2684906858      -0.0000000002     0.999996    0.00000580
  622       -6.2684906861      -0.0000000002     0.999996    0.00000579
  623       -6.2684906863      -0.0000000002     0.999996    0.00000578
  624       -6.2684906866      -0.0000000002     0.999996    0.00000577
  625       -6.2684906868      -0.0000000002     0.999996    0.00000576
  626       -6.2684906871      -0.0000000002     0.999996    0.00000575
  627       -6.2684906873      -0.0000000002     0.999996    0.00000574
  628       -6.2684906876      -0.0000000002     0.999996    0.00000573
  629       -6.2684906878      -0.0000000002     0.999996    0.00000572
  630       -6.2684906880      -0.0000000002     0.999996    0.00000571
  631       -6.2684906883      -0.0000000002     0.999996    0.00000570
  632       -6.2684906885      -0.0000000002     0.999996    0.00000569
  633       -6.2684906887      -0.0000000002     0.999996    0.00000568
  634       -6.2684906890      -0.0000000002     0.999996    0.00000567
  635       -6.2684906892      -0.0000000002     0.999996    0.00000566
  636       -6.2684906895      -0.0000000002     0.999996    0.00000565
  637       -6.2684906897      -0.0000000002     0.999996    0.00000564
  638       -6.2684906899      -0.0000000002     0.999996    0.00000563
  639       -6.2684906902      -0.0000000002     0.999996    0.00000562
  640       -6.2684906904      -0.0000000002     0.999996    0.00000562
  641       -6.2684906906      -0.0000000002     0.999996    0.00000561
  642       -6.2684906908      -0.0000000002     0.999996    0.00000560
  643       -6.2684906911      -0.0000000002     0.999996    0.00000559
  644       -6.2684906913      -0.0000000002     0.999996    0.00000558
  645       -6.2684906915      -0.0000000002     0.999996    0.00000557
  646       -6.2684906918      -0.0000000002     0.999996    0.00000556
  647       -6.2684906920      -0.0000000002     0.999996    0.00000555
  648       -6.2684906922      -0.0000000002     0.999996    0.00000554
  649       -6.2684906924      -0.0000000002     0.999996    0.00000553
  650       -6.2684906927      -0.0000000002     0.999996    0.00000552
  651       -6.2684906929      -0.0000000002     0.999996    0.00000551
  652       -6.2684906931      -0.0000000002     0.999996    0.00000550
  653       -6.2684906933      -0.0000000002     0.999996    0.00000550
  654       -6.2684906935      -0.0000000002     0.999996    0.00000549
  655       -6.2684906938      -0.0000000002     0.999996    0.00000548
  656       -6.2684906940      -0.0000000002     0.999996    0.00000547
  657       -6.2684906942      -0.0000000002     0.999996    0.00000546
  658       -6.2684906944      -0.0000000002     0.999996    0.00000545
  659       -6.2684906946      -0.0000000002     0.999996    0.00000544
  660       -6.2684906949      -0.0000000002     0.999996    0.00000543
  661       -6.2684906951      -0.0000000002     0.999996    0.00000543
  662       -6.2684906953      -0.0000000002     0.999996    0.00000542
  663       -6.2684906955      -0.0000000002     0.999996    0.00000541
  664       -6.2684906957      -0.0000000002     0.999996    0.00000540
  665       -6.2684906959      -0.0000000002     0.999996    0.00000539
  666       -6.2684906961      -0.0000000002     0.999996    0.00000538
  667       -6.2684906964      -0.0000000002     0.999996    0.00000537
  668       -6.2684906966      -0.0000000002     0.999996    0.00000537
  669       -6.2684906968      -0.0000000002     0.999996    0.00000536
  670       -6.2684906970      -0.0000000002     0.999996    0.00000535
  671       -6.2684906972      -0.0000000002     0.999996    0.00000534
  672       -6.2684906974      -0.0000000002     0.999996    0.00000533
  673       -6.2684906976      -0.0000000002     0.999996    0.00000533
  674       -6.2684906978      -0.0000000002     0.999996    0.00000532
  675       -6.2684906980      -0.0000000002     0.999996    0.00000531
  676       -6.2684906982      -0.0000000002     0.999996    0.00000530
  677       -6.2684906984      -0.0000000002     0.999996    0.00000529
  678       -6.2684906986      -0.0000000002     0.999996    0.00000529
  679       -6.2684906988      -0.0000000002     0.999996    0.00000528
  680       -6.2684906990      -0.0000000002     0.999996    0.00000527
  681       -6.2684906992      -0.0000000002     0.999996    0.00000526
  682       -6.2684906994      -0.0000000002     0.999996    0.00000525
  683       -6.2684906996      -0.0000000002     0.999996    0.00000525
  684       -6.2684906999      -0.0000000002     0.999996    0.00000524
  685       -6.2684907001      -0.0000000002     0.999996    0.00000523
  686       -6.2684907003      -0.0000000002     0.999996    0.00000522
  687       -6.2684907004      -0.0000000002     0.999996    0.00000522
  688       -6.2684907006      -0.0000000002     0.999996    0.00000521
  689       -6.2684907008      -0.0000000002     0.999996    0.00000520
  690       -6.2684907010      -0.0000000002     0.999996    0.00000519
  691       -6.2684907012      -0.0000000002     0.999996    0.00000519
  692       -6.2684907014      -0.0000000002     0.999996    0.00000518
  693       -6.2684907016      -0.0000000002     0.999996    0.00000517
  694       -6.2684907018      -0.0000000002     0.999996    0.00000517
  695       -6.2684907020      -0.0000000002     0.999996    0.00000516
  696       -6.2684907022      -0.0000000002     0.999996    0.00000515
  697       -6.2684907024      -0.0000000002     0.999996    0.00000514
  698       -6.2684907026      -0.0000000002     0.999996    0.00000514
  699       -6.2684907028      -0.0000000002     0.999996    0.00000513
  700       -6.2684907030      -0.0000000002     0.999996    0.00000512
  701       -6.2684907032      -0.0000000002     0.999996    0.00000512
  702       -6.2684907034      -0.0000000002     0.999996    0.00000511
  703       -6.2684907036      -0.0000000002     0.999996    0.00000510
  704       -6.2684907037      -0.0000000002     0.999996    0.00000509
  705       -6.2684907039      -0.0000000002     0.999996    0.00000509
  706       -6.2684907041      -0.0000000002     0.999996    0.00000508
  707       -6.2684907043      -0.0000000002     0.999996    0.00000507
  708       -6.2684907045      -0.0000000002     0.999996    0.00000507
  709       -6.2684907047      -0.0000000002     0.999996    0.00000506
  710       -6.2684907049      -0.0000000002     0.999996    0.00000505
  711       -6.2684907051      -0.0000000002     0.999996    0.00000505
  712       -6.2684907052      -0.0000000002     0.999996    0.00000504
  713       -6.2684907054      -0.0000000002     0.999996    0.00000503
  714       -6.2684907056      -0.0000000002     0.999996    0.00000503
  715       -6.2684907058      -0.0000000002     0.999996    0.00000502
  716       -6.2684907060      -0.0000000002     0.999996    0.00000501
  717       -6.2684907062      -0.0000000002     0.999996    0.00000501
  718       -6.2684907063      -0.0000000002     0.999996    0.00000500
  719       -6.2684907065      -0.0000000002     0.999996    0.00000500
  720       -6.2684907067      -0.0000000002     0.999996    0.00000499
  721       -6.2684907069      -0.0000000002     0.999996    0.00000498
  722       -6.2684907071      -0.0000000002     0.999996    0.00000498
  723       -6.2684907072      -0.0000000002     0.999996    0.00000497
  724       -6.2684907074      -0.0000000002     0.999996    0.00000496
  725       -6.2684907076      -0.0000000002     0.999996    0.00000496
  726       -6.2684907078      -0.0000000002     0.999996    0.00000495
  727       -6.2684907080      -0.0000000002     0.999996    0.00000495
  728       -6.2684907081      -0.0000000002     0.999996    0.00000494
  729       -6.2684907083      -0.0000000002     0.999996    0.00000493
  730       -6.2684907085      -0.0000000002     0.999996    0.00000493
  731       -6.2684907087      -0.0000000002     0.999996    0.00000492
  732       -6.2684907088      -0.0000000002     0.999996    0.00000492
  733       -6.2684907090      -0.0000000002     0.999996    0.00000491
  734       -6.2684907092      -0.0000000002     0.999996    0.00000490
  735       -6.2684907094      -0.0000000002     0.999996    0.00000490
  736       -6.2684907095      -0.0000000002     0.999996    0.00000489
  737       -6.2684907097      -0.0000000002     0.999996    0.00000489
  738       -6.2684907099      -0.0000000002     0.999996    0.00000488
  739       -6.2684907101      -0.0000000002     0.999996    0.00000487
  740       -6.2684907102      -0.0000000002     0.999996    0.00000487
  741       -6.2684907104      -0.0000000002     0.999996    0.00000486
  742       -6.2684907106      -0.0000000002     0.999996    0.00000486
  743       -6.2684907107      -0.0000000002     0.999996    0.00000485
  744       -6.2684907109      -0.0000000002     0.999996    0.00000485
  745       -6.2684907111      -0.0000000002     0.999996    0.00000484
  746       -6.2684907113      -0.0000000002     0.999996    0.00000483
  747       -6.2684907114      -0.0000000002     0.999996    0.00000483
  748       -6.2684907116      -0.0000000002     0.999996    0.00000482
  749       -6.2684907118      -0.0000000002     0.999996    0.00000482
  750       -6.2684907119      -0.0000000002     0.999996    0.00000481
  751       -6.2684907121      -0.0000000002     0.999996    0.00000481
  752       -6.2684907123      -0.0000000002     0.999996    0.00000480
  753       -6.2684907124      -0.0000000002     0.999996    0.00000480
  754       -6.2684907126      -0.0000000002     0.999996    0.00000479
  755       -6.2684907128      -0.0000000002     0.999996    0.00000479
  756       -6.2684907129      -0.0000000002     0.999996    0.00000478
  757       -6.2684907131      -0.0000000002     0.999996    0.00000478
  758       -6.2684907133      -0.0000000002     0.999996    0.00000477
  759       -6.2684907134      -0.0000000002     0.999996    0.00000477
  760       -6.2684907136      -0.0000000002     0.999996    0.00000476
  761       -6.2684907138      -0.0000000002     0.999996    0.00000476
  762       -6.2684907139      -0.0000000002     0.999996    0.00000475
  763       -6.2684907141      -0.0000000002     0.999996    0.00000475
  764       -6.2684907142      -0.0000000002     0.999996    0.00000474
  765       -6.2684907144      -0.0000000002     0.999996    0.00000474
  766       -6.2684907146      -0.0000000002     0.999996    0.00000473
  767       -6.2684907147      -0.0000000002     0.999996    0.00000473
  768       -6.2684907149      -0.0000000002     0.999996    0.00000472
  769       -6.2684907151      -0.0000000002     0.999996    0.00000472
  770       -6.2684907152      -0.0000000002     0.999996    0.00000471
  771       -6.2684907154      -0.0000000002     0.999996    0.00000471
  772       -6.2684907155      -0.0000000002     0.999996    0.00000470
  773       -6.2684907157      -0.0000000002     0.999996    0.00000470
  774       -6.2684907159      -0.0000000002     0.999996    0.00000469
  775       -6.2684907160      -0.0000000002     0.999996    0.00000469
  776       -6.2684907162      -0.0000000002     0.999996    0.00000468
  777       -6.2684907163      -0.0000000002     0.999996    0.00000468
  778       -6.2684907165      -0.0000000002     0.999996    0.00000467
  779       -6.2684907167      -0.0000000002     0.999996    0.00000467
  780       -6.2684907168      -0.0000000002     0.999996    0.00000466
  781       -6.2684907170      -0.0000000002     0.999996    0.00000466
  782       -6.2684907171      -0.0000000002     0.999996    0.00000465
  783       -6.2684907173      -0.0000000002     0.999996    0.00000465
  784       -6.2684907174      -0.0000000002     0.999996    0.00000465
  785       -6.2684907176      -0.0000000002     0.999996    0.00000464
  786       -6.2684907177      -0.0000000002     0.999996    0.00000464
  787       -6.2684907179      -0.0000000002     0.999996    0.00000463
  788       -6.2684907181      -0.0000000002     0.999996    0.00000463
  789       -6.2684907182      -0.0000000002     0.999996    0.00000462
  790       -6.2684907184      -0.0000000002     0.999996    0.00000462
  791       -6.2684907185      -0.0000000002     0.999996    0.00000461
  792       -6.2684907187      -0.0000000002     0.999996    0.00000461
  793       -6.2684907188      -0.0000000002     0.999996    0.00000461
  794       -6.2684907190      -0.0000000002     0.999996    0.00000460
  795       -6.2684907191      -0.0000000002     0.999996    0.00000460
  796       -6.2684907193      -0.0000000002     0.999996    0.00000459
  797       -6.2684907194      -0.0000000002     0.999996    0.00000459
  798       -6.2684907196      -0.0000000002     0.999996    0.00000459
  799       -6.2684907197      -0.0000000002     0.999996    0.00000458
  800       -6.2684907199      -0.0000000002     0.999996    0.00000458
  801       -6.2684907200      -0.0000000002     0.999996    0.00000457
  802       -6.2684907202      -0.0000000002     0.999996    0.00000457
  803       -6.2684907203      -0.0000000002     0.999996    0.00000457
  804       -6.2684907205      -0.0000000002     0.999996    0.00000456
  805       -6.2684907206      -0.0000000002     0.999996    0.00000456
  806       -6.2684907208      -0.0000000001     0.999996    0.00000455
  807       -6.2684907209      -0.0000000001     0.999996    0.00000455
  808       -6.2684907211      -0.0000000001     0.999996    0.00000455
  809       -6.2684907212      -0.0000000001     0.999996    0.00000454
  810       -6.2684907214      -0.0000000001     0.999996    0.00000454
  811       -6.2684907215      -0.0000000001     0.999996    0.00000453
  812       -6.2684907217      -0.0000000001     0.999996    0.00000453
  813       -6.2684907218      -0.0000000001     0.999996    0.00000453
  814       -6.2684907220      -0.0000000001     0.999996    0.00000452
  815       -6.2684907221      -0.0000000001     0.999996    0.00000452
  816       -6.2684907223      -0.0000000001     0.999996    0.00000452
  817       -6.2684907224      -0.0000000001     0.999996    0.00000451
  818       -6.2684907226      -0.0000000001     0.999996    0.00000451
  819       -6.2684907227      -0.0000000001     0.999996    0.00000450
  820       -6.2684907229      -0.0000000001     0.999996    0.00000450
  821       -6.2684907230      -0.0000000001     0.999996    0.00000450
  822       -6.2684907232      -0.0000000001     0.999996    0.00000449
  823       -6.2684907233      -0.0000000001     0.999996    0.00000449
  824       -6.2684907235      -0.0000000001     0.999996    0.00000449
  825       -6.2684907236      -0.0000000001     0.999996    0.00000448
  826       -6.2684907237      -0.0000000001     0.999996    0.00000448
  827       -6.2684907239      -0.0000000001     0.999996    0.00000448
  828       -6.2684907240      -0.0000000001     0.999996    0.00000447
  829       -6.2684907242      -0.0000000001     0.999996    0.00000447
  830       -6.2684907243      -0.0000000001     0.999996    0.00000447
  831       -6.2684907245      -0.0000000001     0.999996    0.00000446
  832       -6.2684907246      -0.0000000001     0.999996    0.00000446
  833       -6.2684907247      -0.0000000001     0.999996    0.00000446
  834       -6.2684907249      -0.0000000001     0.999996    0.00000445
  835       -6.2684907250      -0.0000000001     0.999996    0.00000445
  836       -6.2684907252      -0.0000000001     0.999996    0.00000445
  837       -6.2684907253      -0.0000000001     0.999996    0.00000444
  838       -6.2684907255      -0.0000000001     0.999996    0.00000444
  839       -6.2684907256      -0.0000000001     0.999996    0.00000444
  840       -6.2684907257      -0.0000000001     0.999996    0.00000443
  841       -6.2684907259      -0.0000000001     0.999996    0.00000443
  842       -6.2684907260      -0.0000000001     0.999996    0.00000443
  843       -6.2684907262      -0.0000000001     0.999996    0.00000443
  844       -6.2684907263      -0.0000000001     0.999996    0.00000442
  845       -6.2684907264      -0.0000000001     0.999996    0.00000442
  846       -6.2684907266      -0.0000000001     0.999996    0.00000442
  847       -6.2684907267      -0.0000000001     0.999996    0.00000441
  848       -6.2684907269      -0.0000000001     0.999996    0.00000441
  849       -6.2684907270      -0.0000000001     0.999996    0.00000441
  850       -6.2684907271      -0.0000000001     0.999996    0.00000440
  851       -6.2684907273      -0.0000000001     0.999996    0.00000440
  852       -6.2684907274      -0.0000000001     0.999996    0.00000440
  853       -6.2684907276      -0.0000000001     0.999996    0.00000440
  854       -6.2684907277      -0.0000000001     0.999996    0.00000439
  855       -6.2684907278      -0.0000000001     0.999996    0.00000439
  856       -6.2684907280      -0.0000000001     0.999996    0.00000439
  857       -6.2684907281      -0.0000000001     0.999996    0.00000438
  858       -6.2684907283      -0.0000000001     0.999996    0.00000438
  859       -6.2684907284      -0.0000000001     0.999996    0.00000438
  860       -6.2684907285      -0.0000000001     0.999996    0.00000438
  861       -6.2684907287      -0.0000000001     0.999996    0.00000437
  862       -6.2684907288      -0.0000000001     0.999996    0.00000437
  863       -6.2684907289      -0.0000000001     0.999996    0.00000437
  864       -6.2684907291      -0.0000000001     0.999996    0.00000437
  865       -6.2684907292      -0.0000000001     0.999996    0.00000436
  866       -6.2684907294      -0.0000000001     0.999996    0.00000436
  867       -6.2684907295      -0.0000000001     0.999996    0.00000436
  868       -6.2684907296      -0.0000000001     0.999996    0.00000436
  869       -6.2684907298      -0.0000000001     0.999996    0.00000435
  870       -6.2684907299      -0.0000000001     0.999996    0.00000435
  871       -6.2684907300      -0.0000000001     0.999996    0.00000435
  872       -6.2684907302      -0.0000000001     0.999996    0.00000435
  873       -6.2684907303      -0.0000000001     0.999996    0.00000434
  874       -6.2684907304      -0.0000000001     0.999996    0.00000434
  875       -6.2684907306      -0.0000000001     0.999996    0.00000434
  876       -6.2684907307      -0.0000000001     0.999996    0.00000434
  877       -6.2684907308      -0.0000000001     0.999996    0.00000433
  878       -6.2684907310      -0.0000000001     0.999996    0.00000433
  879       -6.2684907311      -0.0000000001     0.999996    0.00000433
  880       -6.2684907313      -0.0000000001     0.999996    0.00000433
  881       -6.2684907314      -0.0000000001     0.999996    0.00000432
  882       -6.2684907315      -0.0000000001     0.999996    0.00000432
  883       -6.2684907317      -0.0000000001     0.999996    0.00000432
  884       -6.2684907318      -0.0000000001     0.999996    0.00000432
  885       -6.2684907319      -0.0000000001     0.999996    0.00000432
  886       -6.2684907321      -0.0000000001     0.999996    0.00000431
  887       -6.2684907322      -0.0000000001     0.999996    0.00000431
  888       -6.2684907323      -0.0000000001     0.999996    0.00000431
  889       -6.2684907325      -0.0000000001     0.999996    0.00000431
  890       -6.2684907326      -0.0000000001     0.999996    0.00000431
  891       -6.2684907327      -0.0000000001     0.999996    0.00000430
  892       -6.2684907329      -0.0000000001     0.999996    0.00000430
  893       -6.2684907330      -0.0000000001     0.999996    0.00000430
  894       -6.2684907331      -0.0000000001     0.999996    0.00000430
  895       -6.2684907332      -0.0000000001     0.999996    0.00000429
  896       -6.2684907334      -0.0000000001     0.999996    0.00000429
  897       -6.2684907335      -0.0000000001     0.999996    0.00000429
  898       -6.2684907336      -0.0000000001     0.999996    0.00000429
  899       -6.2684907338      -0.0000000001     0.999996    0.00000429
  900       -6.2684907339      -0.0000000001     0.999996    0.00000429
  901       -6.2684907340      -0.0000000001     0.999996    0.00000428
  902       -6.2684907342      -0.0000000001     0.999996    0.00000428
  903       -6.2684907343      -0.0000000001     0.999996    0.00000428
  904       -6.2684907344      -0.0000000001     0.999996    0.00000428
  905       -6.2684907346      -0.0000000001     0.999996    0.00000428
  906       -6.2684907347      -0.0000000001     0.999996    0.00000427
  907       -6.2684907348      -0.0000000001     0.999996    0.00000427
  908       -6.2684907350      -0.0000000001     0.999996    0.00000427
  909       -6.2684907351      -0.0000000001     0.999996    0.00000427
  910       -6.2684907352      -0.0000000001     0.999996    0.00000427
  911       -6.2684907353      -0.0000000001     0.999996    0.00000427
  912       -6.2684907355      -0.0000000001     0.999996    0.00000426
  913       -6.2684907356      -0.0000000001     0.999996    0.00000426
  914       -6.2684907357      -0.0000000001     0.999996    0.00000426
  915       -6.2684907359      -0.0000000001     0.999996    0.00000426
  916       -6.2684907360      -0.0000000001     0.999996    0.00000426
  917       -6.2684907361      -0.0000000001     0.999996    0.00000426
  918       -6.2684907363      -0.0000000001     0.999996    0.00000425
  919       -6.2684907364      -0.0000000001     0.999996    0.00000425
  920       -6.2684907365      -0.0000000001     0.999996    0.00000425
  921       -6.2684907366      -0.0000000001     0.999996    0.00000425
  922       -6.2684907368      -0.0000000001     0.999996    0.00000425
  923       -6.2684907369      -0.0000000001     0.999996    0.00000425
  924       -6.2684907370      -0.0000000001     0.999996    0.00000425
  925       -6.2684907372      -0.0000000001     0.999996    0.00000424
  926       -6.2684907373      -0.0000000001     0.999996    0.00000424
  927       -6.2684907374      -0.0000000001     0.999996    0.00000424
  928       -6.2684907375      -0.0000000001     0.999996    0.00000424
  929       -6.2684907377      -0.0000000001     0.999996    0.00000424
  930       -6.2684907378      -0.0000000001     0.999996    0.00000424
  931       -6.2684907379      -0.0000000001     0.999996    0.00000424
  932       -6.2684907381      -0.0000000001     0.999996    0.00000424
  933       -6.2684907382      -0.0000000001     0.999996    0.00000423
  934       -6.2684907383      -0.0000000001     0.999996    0.00000423
  935       -6.2684907384      -0.0000000001     0.999996    0.00000423
  936       -6.2684907386      -0.0000000001     0.999996    0.00000423
  937       -6.2684907387      -0.0000000001     0.999996    0.00000423
  938       -6.2684907388      -0.0000000001     0.999996    0.00000423
  939       -6.2684907390      -0.0000000001     0.999996    0.00000423
  940       -6.2684907391      -0.0000000001     0.999996    0.00000423
  941       -6.2684907392      -0.0000000001     0.999996    0.00000422
  942       -6.2684907393      -0.0000000001     0.999996    0.00000422
  943       -6.2684907395      -0.0000000001     0.999996    0.00000422
  944       -6.2684907396      -0.0000000001     0.999996    0.00000422
  945       -6.2684907397      -0.0000000001     0.999996    0.00000422
  946       -6.2684907398      -0.0000000001     0.999996    0.00000422
  947       -6.2684907400      -0.0000000001     0.999996    0.00000422
  948       -6.2684907401      -0.0000000001     0.999996    0.00000422
  949       -6.2684907402      -0.0000000001     0.999996    0.00000422
  950       -6.2684907404      -0.0000000001     0.999996    0.00000422
  951       -6.2684907405      -0.0000000001     0.999996    0.00000421
  952       -6.2684907406      -0.0000000001     0.999996    0.00000421
  953       -6.2684907407      -0.0000000001     0.999996    0.00000421
  954       -6.2684907409      -0.0000000001     0.999996    0.00000421
  955       -6.2684907410      -0.0000000001     0.999996    0.00000421
  956       -6.2684907411      -0.0000000001     0.999996    0.00000421
  957       -6.2684907412      -0.0000000001     0.999996    0.00000421
  958       -6.2684907414      -0.0000000001     0.999996    0.00000421
  959       -6.2684907415      -0.0000000001     0.999996    0.00000421
  960       -6.2684907416      -0.0000000001     0.999996    0.00000421
  961       -6.2684907417      -0.0000000001     0.999996    0.00000421
  962       -6.2684907419      -0.0000000001     0.999996    0.00000421
  963       -6.2684907420      -0.0000000001     0.999996    0.00000420
  964       -6.2684907421      -0.0000000001     0.999996    0.00000420
  965       -6.2684907422      -0.0000000001     0.999996    0.00000420
  966       -6.2684907424      -0.0000000001     0.999996    0.00000420
  967       -6.2684907425      -0.0000000001     0.999996    0.00000420
  968       -6.2684907426      -0.0000000001     0.999996    0.00000420
  969       -6.2684907428      -0.0000000001     0.999996    0.00000420
  970       -6.2684907429      -0.0000000001     0.999996    0.00000420
  971       -6.2684907430      -0.0000000001     0.999996    0.00000420
  972       -6.2684907431      -0.0000000001     0.999996    0.00000420
  973       -6.2684907433      -0.0000000001     0.999996    0.00000420
  974       -6.2684907434      -0.0000000001     0.999996    0.00000420
  975       -6.2684907435      -0.0000000001     0.999996    0.00000420
  976       -6.2684907436      -0.0000000001     0.999996    0.00000420
  977       -6.2684907438      -0.0000000001     0.999996    0.00000420
  978       -6.2684907439      -0.0000000001     0.999996    0.00000420
  979       -6.2684907440      -0.0000000001     0.999996    0.00000420
  980       -6.2684907441      -0.0000000001     0.999996    0.00000420
  981       -6.2684907443      -0.0000000001     0.999996    0.00000419
  982       -6.2684907444      -0.0000000001     0.999996    0.00000419
  983       -6.2684907445      -0.0000000001     0.999996    0.00000419
  984       -6.2684907446      -0.0000000001     0.999996    0.00000419
  985       -6.2684907448      -0.0000000001     0.999996    0.00000419
  986       -6.2684907449      -0.0000000001     0.999996    0.00000419
  987       -6.2684907450      -0.0000000001     0.999996    0.00000419
  988       -6.2684907451      -0.0000000001     0.999996    0.00000419
  989       -6.2684907453      -0.0000000001     0.999996    0.00000419
  990       -6.2684907454      -0.0000000001     0.999996    0.00000419
  991       -6.2684907455      -0.0000000001     0.999996    0.00000419
  992       -6.2684907456      -0.0000000001     0.999996    0.00000419
  993       -6.2684907458      -0.0000000001     0.999996    0.00000419
  994       -6.2684907459      -0.0000000001     0.999996    0.00000419
  995       -6.2684907460      -0.0000000001     0.999996    0.00000419
  996       -6.2684907461      -0.0000000001     0.999996    0.00000419
  997       -6.2684907463      -0.0000000001     0.999996    0.00000419
  998       -6.2684907464      -0.0000000001     0.999996    0.00000419
  999       -6.2684907465      -0.0000000001     0.999996    0.00000419
 1000       -6.2684907466      -0.0000000001     0.999996    0.00000419

Total Energy:                       -6.2684907466 H         -170.5743 eV
Extrapolated to 0:                  -6.2447461092 H         -169.9282 eV

----------------------------------------------------------------------------------
 Solving CP-REKS equation for  1 state vector...
----------------------------------------------------------------------------------
  CG solver: Constructing Y initial guess
  CG solver: Iteration    1    eps =    0.042362596657
  CG solver: Iteration    2    eps =    0.013284331914
  CG solver: Iteration    3    eps =    0.058602945239
  CG solver: Iteration    4    eps =    3.899433521351
  CG solver: Iteration    5    eps =   20.233692451469
  CG solver: Iteration    6    eps =   15.356559313127
  CG solver: Iteration    7    eps =    8.259775491695
  CG solver: Iteration    8    eps =    1.149850487973
  CG solver: Iteration    9    eps =    0.106763045230
  CG solver: Iteration   10    eps =    0.001288243643
  CG solver: Iteration   11    eps =    0.000073103321
  CG solver: Iteration   12    eps =    0.000012746932
  CG solver: Iteration   13    eps =    0.000000466334
  CG solver: Iteration   14    eps =    0.000000006826
  Convergence reached in CG solver after   14 iterations
  CG solver: Calculating converged R, Z, Q2 matrix
----------------------------------------------------------------------------------

----------------------------------------------------------------------------------
 Solving CP-REKS equation for SI between  1 and  2 state vectors...
----------------------------------------------------------------------------------
  CG solver: Constructing Y initial guess
  CG solver: Iteration    1    eps =    0.010475752987
  CG solver: Iteration    2    eps =    0.015600878736
  CG solver: Iteration    3    eps =    0.111852483993
  CG solver: Iteration    4    eps =    6.540674407938
  CG solver: Iteration    5    eps =    1.290222333484
  CG solver: Iteration    6    eps =    0.641917429540
  CG solver: Iteration    7    eps =    0.053654647040
  CG solver: Iteration    8    eps =    0.005465178682
  CG solver: Iteration    9    eps =    0.000225767954
  CG solver: Iteration   10    eps =    0.000038735423
  CG solver: Iteration   11    eps =    0.000002588124
  CG solver: Iteration   12    eps =    0.000000060133
  CG solver: Iteration   13    eps =    0.000000000736
  Convergence reached in CG solver after   13 iterations
  CG solver: Calculating converged R, Z, Q2 matrix
----------------------------------------------------------------------------------

--------------------------------------------------
 Gradient Information
--------------------------------------------------
           1 st state (SSR)
     0.00000000     0.00000000     0.00000000
     0.00000000     0.00000000     0.00000000
     0.00000000     0.00000000     0.00000000
     0.00000000     0.00000000     0.00000000
     0.00000000     0.00000000     0.00000000
     0.00000000     0.00000000     0.00000000

           2 st state (SSR)
     0.00000000     0.00000000     0.00000000
     0.00000000     0.00000000     0.00000000
     0.00000000     0.00000000     0.00000000
     0.00000000     0.00000000     0.00000000
     0.00000000     0.00000000     0.00000000
     0.00000000     0.00000000     0.00000000
--------------------------------------------------
 Coupling Information
--------------------------------------------------
 between  1 and  2 states
--------------------------------------------------
 g vector - difference gradient
    14.06360421    18.03534636  -283.00168948
   -15.92848332   -14.61744858   295.29854962
   -11.79565145   -62.28198554     6.09331761
    -6.09926534    67.95609922   -18.02628724
    12.68221824   -62.11118867   -18.82144898
     7.07757766    53.01917720    18.45755847

 h vector - derivative coupling
     9.19695715    11.52442210  -177.83886805
   -10.67343082    -9.12303066   185.91359373
    -7.49762008   -39.31008325     3.75449953
    -3.57203866    42.66035481   -11.39277372
     8.09434308   -39.18101649   -11.89332508
     4.45178934    33.42935349    11.45687359

 G vector - GDV
     0.00000000     0.00000000     0.00000000
     0.00000000     0.00000000     0.00000000
     0.00000000     0.00000000     0.00000000
     0.00000000     0.00000000     0.00000000
     0.00000000     0.00000000     0.00000000
     0.00000000     0.00000000     0.00000000

 H vector - DCV - non-adiabatic coupling
     0.00000000     0.00000000     0.00000000
     0.00000000     0.00000000     0.00000000
     0.00000000     0.00000000     0.00000000
     0.00000000     0.00000000     0.00000000
     0.00000000     0.00000000     0.00000000
     0.00000000     0.00000000     0.00000000
--------------------------------------------------

WARNING!
-> SCC is NOT converged, maximal SCC iterations exceeded

--------------------------------------------------------------------------------
DFTB+ running times                          cpu [s]             wall clock [s]
--------------------------------------------------------------------------------
Global initialisation                  +     0.00  (  0.2%)      0.01  (  2.5%)
SCC                                    +     0.41  ( 96.3%)      0.41  ( 93.8%)
      Sparse to dense                        0.02  (  4.8%)      0.02  (  4.1%)
      Dense to sparse                        0.07  ( 15.8%)      0.07  ( 16.4%)
      Range separated Hamiltonian            0.03  (  6.6%)      0.03  (  6.4%)
  Density matrix creation                    0.05  ( 12.1%)      0.05  ( 10.5%)
  Force calculation                          0.01  (  3.3%)      0.01  (  3.2%)
--------------------------------------------------------------------------------
Missing                                +     0.01  (  3.5%)      0.02  (  3.7%)
Total                                  =     0.43  (100.0%)      0.44  (100.0%)
--------------------------------------------------------------------------------
