     6
  Step:     0            Position(A)                                  Velocity(au)
C        -0.03883492     0.02663635     0.02278660     0.00004456     0.00003563    -0.00043498
N        -0.03138083    -0.06024789     1.29672142    -0.00015438     0.00010368     0.00031261
H         0.90531808    -0.05943713    -0.53420370    -0.00046147    -0.00005464     0.00058477
H         0.79122441    -0.14585158     1.85913434     0.00082372    -0.00091969     0.00069174
H        -0.99040243     0.00761013     1.80151633     0.00138590    -0.00051780    -0.00043155
H        -1.02024013     0.04772619    -0.52562927    -0.00013375    -0.00037324    -0.00000586
     6
  Step:     1            Position(A)                                  Velocity(au)
C        -0.03859863     0.02688548     0.02003940     0.00004106     0.00005517    -0.00056814
N        -0.03229847    -0.05967639     1.29873627    -0.00017878     0.00010509     0.00042346
H         0.90292655    -0.05991287    -0.53100838    -0.00041007    -0.00011878     0.00057680
H         0.79620770    -0.15108192     1.86314114     0.00098078    -0.00099004     0.00076434
H        -0.98237291     0.00460971     1.79897727     0.00153473    -0.00057775    -0.00048727
H        -1.02092478     0.04552220    -0.52555571    -0.00011020    -0.00043127     0.00003160
     6
  Step:     2            Position(A)                                  Velocity(au)
C        -0.03838561     0.02724011     0.01656900     0.00003607     0.00007380    -0.00069657
N        -0.03333738    -0.05909776     1.30135565    -0.00019793     0.00010590     0.00053136
H         0.90083037    -0.06073700    -0.52789133    -0.00035202    -0.00018067     0.00055484
H         0.80195787    -0.15668643     1.86749911     0.00110039    -0.00105243     0.00081719
H        -0.97360669     0.00128734     1.79618372     0.00164791    -0.00063287    -0.00052166
H        -1.02144609     0.04300641    -0.52528350    -0.00007552    -0.00048503     0.00006597
     6
  Step:     3            Position(A)                                  Velocity(au)
C        -0.03820343     0.02769415     0.01240642     0.00002979     0.00009099    -0.00081662
N        -0.03446734    -0.05851597     1.30455892    -0.00021098     0.00010580     0.00063322
H         0.89906919    -0.06189265    -0.52492845    -0.00028578    -0.00023860     0.00051885
H         0.80826566    -0.16261438     1.87209587     0.00117976    -0.00110314     0.00084775
H        -0.96431516    -0.00232524     1.79326091     0.00171665    -0.00068055    -0.00053105
H        -1.02175237     0.04020731    -0.52483277    -0.00003373    -0.00053222     0.00009586
     6
  Step:     4            Position(A)                                  Velocity(au)
C        -0.03805852     0.02823914     0.00760313     0.00002248     0.00010635    -0.00092435
N        -0.03565376    -0.05793619     1.30830793    -0.00021720     0.00010465     0.00072561
H         0.89769277    -0.06335661    -0.52219471    -0.00021005    -0.00029166     0.00046939
H         0.81491068    -0.16879805     1.87680674     0.00121751    -0.00113953     0.00085433
H        -0.95475917    -0.00618456     1.79035326     0.00173251    -0.00071904    -0.00051243
H        -1.02181645     0.03716307    -0.52423100     0.00001062    -0.00057139     0.00011992
     6
  Step:     5            Position(A)                                  Velocity(au)
C        -0.03795601     0.02886485     0.00223138     0.00001440     0.00011959    -0.00101612
N        -0.03685828    -0.05736398     1.31254633    -0.00021610     0.00010245     0.00080532
H         0.89675696    -0.06510318    -0.51976155    -0.00012462    -0.00033948     0.00040758
H         0.82166770    -0.17515811     1.88150012     0.00121380    -0.00116000     0.00083657
H        -0.94524408    -0.01024024     1.78762017     0.00168895    -0.00074744    -0.00046394
H        -1.02163548     0.03391756    -0.52351274     0.00005330    -0.00060176     0.00013691
     6
  Step:     6            Position(A)                                  Velocity(au)
C        -0.03789952     0.02955976    -0.00361800     0.00000588     0.00013051    -0.00108908
N        -0.03804013    -0.05680486     1.31720118    -0.00020750     0.00009925     0.00086973
H         0.89631663    -0.06710553    -0.51769379    -0.00003057    -0.00038188     0.00033520
H         0.82831490    -0.18160806     1.88604510     0.00117067    -0.00116388     0.00079568
H        -0.93610787    -0.01443862     1.78522985     0.00158266    -0.00076559    -0.00038524
H        -1.02122788     0.03051778    -0.52271905     0.00009074    -0.00062302     0.00014585
     6
  Step:     7            Position(A)                                  Velocity(au)
C        -0.03789087     0.03031138    -0.00983997    -0.00000273     0.00013902    -0.00114161
N        -0.03915819    -0.05626389     1.32218637    -0.00019172     0.00009521     0.00091724
H         0.89641813    -0.06933592    -0.51604616     0.00006975    -0.00041880     0.00025468
H         0.83464342    -0.18805858     1.89031943     0.00109212    -0.00115158     0.00073437
H        -0.92770193    -0.01872600     1.78335018     0.00141470    -0.00077405    -0.00027795
H        -1.02062966     0.02701202    -0.52189611     0.00012020    -0.00063535     0.00014612
     6
  Step:     8            Position(A)                                  Velocity(au)
C        -0.03792986     0.03110680    -0.01632177    -0.00001104     0.00014520    -0.00117368
N        -0.04017358    -0.05574532     1.32740814    -0.00016958     0.00009056     0.00094761
H         0.89709282    -0.07176588    -0.51485979     0.00017320    -0.00045037     0.00016886
H         0.84046793    -0.19442272     1.89421710     0.00098406    -0.00112463     0.00065665
H        -0.92036526    -0.02305214     1.78213688     0.00119114    -0.00077414    -0.00014586
H        -1.01989035     0.02344762    -0.52109304     0.00013976    -0.00063949     0.00013758
     6
  Step:     9            Position(A)                                  Velocity(au)
C        -0.03801420     0.03193343    -0.02295160    -0.00001872     0.00014926    -0.00118702
N        -0.04105265    -0.05525223     1.33277254    -0.00014237     0.00008556     0.00096215
H         0.89835297    -0.07436716    -0.51415974     0.00027637    -0.00047706     0.00008076
H         0.84563679    -0.20062226     1.89765510     0.00085386    -0.00108578     0.00056741
H        -0.91439525    -0.02737425     1.78172067     0.00092275    -0.00076797     0.00000533
H        -1.01906836     0.01986808    -0.52035915     0.00014846    -0.00063676     0.00012062
     6
  Step:    10            Position(A)                                  Velocity(au)
C        -0.03813966     0.03277995    -0.02962808    -0.00002548     0.00015160    -0.00118491
N        -0.04176950    -0.05478619     1.33819377    -0.00011166     0.00008054     0.00096353
H         0.90019091    -0.07711362    -0.51395443     0.00037625    -0.00049973    -0.00000690
H         0.85003959    -0.20659415     1.90057766     0.00070943    -0.00103867     0.00047178
H        -0.91002132    -0.03166096     1.78219668     0.00062346    -0.00075819     0.00016893
H        -1.01822610     0.01630965    -0.51974096     0.00014617    -0.00062905     0.00009600
     6
  Step:    11            Position(A)                                  Velocity(au)
C        -0.03830052     0.03363716    -0.03626828    -0.00005109     0.00025059    -0.00192241
N        -0.04230755    -0.05434709     1.34360130    -0.00012979     0.00012438     0.00156754
H         0.90258149    -0.07998345    -0.51423724     0.00077218    -0.00085261    -0.00015099
H         0.85360973    -0.21229543     1.90295720     0.00091591    -0.00162007     0.00061442
H        -0.90738846    -0.03589524     1.78361923     0.00050554    -0.00122689     0.00055497
H        -1.01742559     0.01279849    -0.51928029     0.00021888    -0.00101491     0.00010609
     6
  Step:    12            Position(A)                                  Velocity(au)
C        -0.03859331     0.03501844    -0.04665782    -0.00005114     0.00023579    -0.00173486
N        -0.04293961    -0.05366999     1.35210773    -0.00009256     0.00011444     0.00142619
H         0.90738605    -0.08473534    -0.51565230     0.00091150    -0.00082094    -0.00033855
H         0.85831391    -0.22112132     1.90615576     0.00073975    -0.00148871     0.00051232
H        -0.90550084    -0.04256575     1.78726161     0.00015887    -0.00112455     0.00072613
H        -1.01654947     0.00717782    -0.51911244     0.00008561    -0.00096579    -0.00004616
     6
  Step:    13            Position(A)                                  Velocity(au)
C        -0.03888201     0.03631811    -0.05599366    -0.00002641     0.00011799    -0.00082574
N        -0.04335997    -0.05304594     1.35981716    -0.00002976     0.00005618     0.00068499
H         0.91294523    -0.08931754    -0.51808653     0.00055040    -0.00042132    -0.00027032
H         0.86202076    -0.22922209     1.90878234     0.00030127    -0.00072588     0.00022014
H        -0.90558210    -0.04868146     1.79187529    -0.00009555    -0.00054851     0.00047470
H        -1.01645225     0.00181737    -0.51980515    -0.00002789    -0.00049093    -0.00010383
     6
  Step:    14            Position(A)                                  Velocity(au)
C        -0.03903624     0.03698459    -0.06058982    -0.00002781     0.00011838    -0.00080439
N        -0.04342908    -0.05273657     1.36363472     0.00000416     0.00005383     0.00066902
H         0.91623686    -0.09175258    -0.51979976     0.00061194    -0.00044198    -0.00033412
H         0.86326244    -0.23317618     1.90975228     0.00014302    -0.00067830     0.00012695
H        -0.90705808    -0.05179017     1.79504675    -0.00041624    -0.00055565     0.00064412
H        -1.01671120    -0.00092582    -0.52051552    -0.00006519    -0.00048276    -0.00014867
     6
  Step:    15            Position(A)                                  Velocity(au)
C        -0.03919539     0.03765211    -0.06505845    -0.00002846     0.00011964    -0.00078916
N        -0.04331304    -0.05243929     1.36735639     0.00003583     0.00005245     0.00065829
H         0.91984122    -0.09429821    -0.52185175     0.00066803    -0.00046546    -0.00039454
H         0.86363252    -0.23686590     1.91021296    -0.00000657    -0.00063923     0.00004067
H        -0.91027272    -0.05494309     1.79913389    -0.00071484    -0.00057015     0.00080559
H        -1.01718689    -0.00362293    -0.52148048    -0.00010534    -0.00047973    -0.00019591
     6
  Step:    16            Position(A)                                  Velocity(au)
C        -0.03935524     0.03832551    -0.06943426    -0.00002828     0.00012138    -0.00077722
N        -0.04302750    -0.05214875     1.37101247     0.00006469     0.00005181     0.00065067
H         0.92372378    -0.09696922    -0.52422153     0.00071610    -0.00049026    -0.00045067
H         0.86318877    -0.24034028     1.91020806    -0.00014698    -0.00060629    -0.00003869
H        -0.91506965    -0.05818006     1.80407533    -0.00098353    -0.00058981     0.00095374
H        -1.01789181    -0.00630233    -0.52271117    -0.00014749    -0.00048001    -0.00024494
     6
  Step:    17            Position(A)                                  Velocity(au)
C        -0.03951114     0.03900734    -0.07373636    -0.00002719     0.00012322    -0.00076636
N        -0.04259080    -0.05186079     1.37462132     0.00009001     0.00005176     0.00064444
H         0.92783674    -0.09977212    -0.52688359     0.00075364    -0.00051493    -0.00050134
H         0.86199144    -0.24363530     1.90978099    -0.00027632    -0.00057793    -0.00011030
H        -0.92125423    -0.06152850     1.80978269    -0.00121371    -0.00061258     0.00108302
H        -1.01883365    -0.00898245    -0.52421531    -0.00019045    -0.00048215    -0.00029482
     6
  Step:    18            Position(A)                                  Velocity(au)
C        -0.03965813     0.03969824    -0.07797161    -0.00002518     0.00012492    -0.00075508
N        -0.04202474    -0.05157218     1.37819165     0.00011110     0.00005216     0.00063842
H         0.93211949    -0.10270563    -0.52980654     0.00077868    -0.00053831    -0.00054550
H         0.86011055    -0.24677847     1.90897932    -0.00039194    -0.00055337    -0.00017288
H        -0.92859058    -0.06500426     1.81614030    -0.00139776    -0.00063670     0.00118871
H        -1.02001350    -0.01167351    -0.52599547    -0.00023286    -0.00048504    -0.00034447
     6
  Step:    19            Position(A)                                  Velocity(au)
C        -0.03979130     0.04039737    -0.08213860    -0.00002228     0.00012628    -0.00074249
N        -0.04135450    -0.05128034     1.38172541     0.00012738     0.00005295     0.00063184
H         0.93650160    -0.10576216    -0.53295365     0.00078993    -0.00055950    -0.00058232
H         0.85763008    -0.24979300     1.90785727    -0.00049097    -0.00053241    -0.00022500
H        -0.93680787    -0.06861346     1.82301010    -0.00153027    -0.00066074     0.00126749
H        -1.02142483    -0.01437977    -0.52804838    -0.00027326    -0.00048794    -0.00039279
     6
  Step:    20            Position(A)                                  Velocity(au)
C        -0.03990598     0.04110293    -0.08623095    -0.00001858     0.00012719    -0.00072812
N        -0.04060782    -0.05098316     1.38522006     0.00013847     0.00005406     0.00062420
H         0.94090649    -0.10892936    -0.53628413     0.00078679    -0.00057788    -0.00061130
H         0.85464907    -0.25270088     1.90647647    -0.00057072    -0.00051517    -0.00026533
H        -0.94561292    -0.07235422     1.83023954    -0.00160865    -0.00068353     0.00131768
H        -1.02305318    -0.01710126    -0.53036478    -0.00031023    -0.00049033    -0.00043875
     6
  Step:    21            Position(A)                                  Velocity(au)
C        -0.03999804     0.04181246    -0.09023962    -0.00001420     0.00012758    -0.00071183
N        -0.03981388    -0.05067882     1.38867015     0.00014425     0.00005547     0.00061523
H         0.94525530    -0.11219159    -0.53975494     0.00076936    -0.00059309    -0.00063229
H         0.85128038    -0.25552466     1.90490528    -0.00062898    -0.00050195    -0.00029281
H        -0.95470548    -0.07621836     1.83767042    -0.00163324    -0.00070421     0.00133925
H        -1.02487645    -0.01983507    -0.53292982    -0.00034250    -0.00049186    -0.00048143
     6
  Step:    22            Position(A)                                  Velocity(au)
C        -0.04006407     0.04252315    -0.09415474    -0.00000929     0.00012745    -0.00069371
N        -0.03900204    -0.05036573     1.39206857     0.00014483     0.00005713     0.00060485
H         0.94947060    -0.11553137    -0.54332252     0.00073834    -0.00060499    -0.00064545
H         0.84764753    -0.25828832     1.90321701    -0.00066432    -0.00049312    -0.00030683
H        -0.96379337    -0.08019311     1.84514744    -0.00160690    -0.00072218     0.00133357
H        -1.02686573    -0.02257639    -0.53572386    -0.00036898    -0.00049234    -0.00052012
     6
  Step:    23            Position(A)                                  Velocity(au)
C        -0.04010154     0.04323211    -0.09796691    -0.00000401     0.00012680    -0.00067403
N        -0.03820064    -0.05004242     1.39540753     0.00014049     0.00005905     0.00059307
H         0.95347969    -0.11893063    -0.54694461     0.00069495    -0.00061367    -0.00065124
H         0.84388049    -0.26101749     1.90148755    -0.00067615    -0.00048901    -0.00030721
H        -0.97260473    -0.08426273     1.85252503    -0.00153446    -0.00073717     0.00130310
H        -1.02898652    -0.02531925    -0.53872348    -0.00038886    -0.00049169    -0.00055432
     6
  Step:    24            Position(A)                                  Velocity(au)
C        -0.04010881     0.04393655    -0.10166808     0.00000147     0.00012568    -0.00065316
N        -0.03743598    -0.04970750     1.39867939     0.00013171     0.00006122     0.00058004
H         0.95721710    -0.12237189    -0.55058174     0.00064074    -0.00061939    -0.00065034
H         0.84011063    -0.26373926     1.89979260    -0.00066477    -0.00048988    -0.00029430
H        -0.98089777    -0.08841020     1.85967284    -0.00142208    -0.00074915     0.00125104
H        -1.03120023    -0.02805719    -0.54190272    -0.00040159    -0.00048991    -0.00058374
     6
  Step:    25            Position(A)                                  Velocity(au)
C        -0.04008519     0.04463396    -0.10525221     0.00000699     0.00012417    -0.00063152
N        -0.03673158    -0.04935964     1.40187724     0.00011904     0.00006362     0.00056598
H         0.96062637    -0.12583927    -0.55419836     0.00057744    -0.00062256    -0.00064358
H         0.83646568    -0.26648151     1.89820491    -0.00063136    -0.00049580    -0.00026891
H        -0.98846645    -0.09261863     1.86647898    -0.00127658    -0.00075832     0.00118098
H        -1.03346584    -0.03078369    -0.54523443    -0.00040693    -0.00048706    -0.00060834
     6
  Step:    26            Position(A)                                  Velocity(au)
C        -0.04003086     0.04532219    -0.10871548     0.00001240     0.00012233    -0.00060953
N        -0.03610758    -0.04899751     1.40499540     0.00010313     0.00006627     0.00055114
H         0.96366092    -0.12931921    -0.55776363     0.00050686    -0.00062365    -0.00063187
H         0.83306505    -0.26927209     1.89679176    -0.00057784    -0.00050670    -0.00023223
H        -0.99514359    -0.09687250     1.87285183    -0.00110502    -0.00076504     0.00109663
H        -1.03574135    -0.03349251    -0.54869140    -0.00040485    -0.00048322    -0.00062824
     6
  Step:    27            Position(A)                                  Velocity(au)
C        -0.03994675     0.04599950    -0.11205627     0.00001759     0.00012024    -0.00058755
N        -0.03558040    -0.04861987     1.40802955     0.00008464     0.00006915     0.00053578
H         0.96628438    -0.13280097    -0.56125178     0.00043079    -0.00062323    -0.00061613
H         0.83001534    -0.27213766     1.89561257    -0.00050683    -0.00052225    -0.00018583
H        -1.00080153    -0.10115861     1.87872039    -0.00091424    -0.00076981     0.00100156
H        -1.03798514    -0.03617780    -0.55224738    -0.00039553    -0.00047846    -0.00064372
     6
  Step:    28            Position(A)                                  Velocity(au)
C        -0.03983451     0.04666459    -0.11527491     0.00002243     0.00011798    -0.00056589
N        -0.03516261    -0.04822554     1.41097687     0.00006427     0.00007224     0.00052013
H         0.96847032    -0.13627696    -0.56464212     0.00035090    -0.00062184    -0.00059722
H         0.82740673    -0.27510253     1.89471710    -0.00042148    -0.00054193    -0.00013155
H        -1.00535022    -0.10546666     1.88403331    -0.00071055    -0.00077316     0.00089906
H        -1.04015708    -0.03883408    -0.55587789    -0.00037929    -0.00047282    -0.00065512
     6
  Step:    29            Position(A)                                  Velocity(au)
C        -0.03969634     0.04731655    -0.11837336     0.00002684     0.00011561    -0.00054475
N        -0.03486293    -0.04781345     1.41383590     0.00004266     0.00007552     0.00050442
H         0.97020153    -0.13974271    -0.56791869     0.00026870    -0.00062004    -0.00057593
H         0.82531023    -0.27818730     1.89414405    -0.00032532    -0.00056496    -0.00007140
H        -1.00873357    -0.10978957     1.88875676    -0.00049951    -0.00077567     0.00079195
H        -1.04221924    -0.04145604    -0.55956061    -0.00035655    -0.00046630    -0.00066285
     6
  Step:    30            Position(A)                                  Velocity(au)
C        -0.03953495     0.04795482    -0.12135467     0.00003073     0.00011317    -0.00052428
N        -0.03468646    -0.04738275     1.41660643     0.00002045     0.00007893     0.00048880
H         0.97146914    -0.14319693    -0.57106983     0.00018557    -0.00061835    -0.00055293
H         0.82377593    -0.28140777     1.89392029    -0.00022213    -0.00059036    -0.00000749
H        -1.01092498    -0.11412358     1.89287191    -0.00028594    -0.00077790     0.00068264
H        -1.04413640    -0.04403829    -0.56327572    -0.00032780    -0.00045883    -0.00066736
     6
  Step:    31            Position(A)                                  Velocity(au)
C        -0.03935349     0.04857912    -0.12422256     0.00003403     0.00011071    -0.00050453
N        -0.03463482    -0.04693281     1.41928921    -0.00000178     0.00008245     0.00047341
H         0.97227183    -0.14664134    -0.57408753     0.00010275    -0.00061729    -0.00052881
H         0.82283205    -0.28477372     1.89406053    -0.00011579    -0.00061697     0.00005803
H        -1.01192368    -0.11846824     1.89637272    -0.00007415    -0.00078042     0.00057321
H        -1.04587640    -0.04657498    -0.56700602    -0.00029358    -0.00045026    -0.00066907
     6
  Step:    32            Position(A)                                  Velocity(au)
C        -0.03915547     0.04918940    -0.12698096     0.00003667     0.00010825    -0.00048545
N        -0.03470629    -0.04646333     1.42188566    -0.00002343     0.00008600     0.00045829
H         0.97261500    -0.15008071    -0.57696694     0.00002140    -0.00061739    -0.00050406
H         0.82248467    -0.28828795     1.89456746    -0.00001019    -0.00064342     0.00012307
H        -1.01175190    -0.12282649     1.89926416     0.00013198    -0.00078381     0.00046545
H        -1.04741026    -0.04905939    -0.57073695    -0.00025443    -0.00044037    -0.00066846
     6
  Step:    33            Position(A)                                  Velocity(au)
C        -0.03894480     0.04978575    -0.12963343     0.00003857     0.00010583    -0.00046692
N        -0.03489602    -0.04597430     1.42439741    -0.00004397     0.00008952     0.00044345
H         0.97251035    -0.15352288    -0.57970582    -0.00005740    -0.00061921    -0.00047908
H         0.82271842    -0.29194541     1.89543233     0.00009095    -0.00066823     0.00018568
H        -1.01045262    -0.12720475     1.90156066     0.00032888    -0.00078872     0.00036091
H        -1.04871232    -0.05148346    -0.57445672    -0.00021096    -0.00042887    -0.00066599
     6
  Step:    34            Position(A)                                  Velocity(au)
C        -0.03872577     0.05036841    -0.13218270     0.00003967     0.00010345    -0.00044875
N        -0.03519618    -0.04546607     1.42682592    -0.00006287     0.00009294     0.00042879
H         0.97197550    -0.15697911    -0.58230422    -0.00013258    -0.00062340    -0.00045427
H         0.82349787    -0.29573244     1.89663606     0.00018421    -0.00068977     0.00024414
H        -1.00808793    -0.13161329     1.90328491     0.00051321    -0.00079585     0.00026099
H        -1.04976045    -0.05383723    -0.57815648    -0.00016380    -0.00041533    -0.00066223
     6
  Step:    35            Position(A)                                  Velocity(au)
C        -0.03850311     0.05093772    -0.13463030     0.00003987     0.00010114    -0.00043065
N        -0.03559612    -0.04493934     1.42917209    -0.00007964     0.00009622     0.00041418
H         0.97103408    -0.16046463    -0.58476420    -0.00020300    -0.00063077    -0.00042997
H         0.82476962    -0.29962615     1.89815083     0.00026659    -0.00070629     0.00029703
H        -1.00473788    -0.13606672     1.90446690     0.00068177    -0.00080605     0.00016695
H        -1.05053623    -0.05610820    -0.58183084    -0.00011364    -0.00039920    -0.00065787
     6
  Step:    36            Position(A)                                  Velocity(au)
C        -0.03828205     0.05149413    -0.13697600     0.00003906     0.00009892    -0.00041227
N        -0.03608262    -0.04439513     1.43143582    -0.00009382     0.00009928     0.00039937
H         0.96971601    -0.16399973    -0.58708987    -0.00026745    -0.00064238    -0.00040659
H         0.82646512    -0.30359359     1.89994208     0.00033565    -0.00071586     0.00034337
H        -1.00049970    -0.14058486     1.90514306     0.00083147    -0.00082038     0.00007986
H        -1.05102534    -0.05828044    -0.58547876    -0.00006130    -0.00037977    -0.00065382
     6
  Step:    37            Position(A)                                  Velocity(au)
C        -0.03806853     0.05203827    -0.13921718     0.00003710     0.00009682    -0.00039303
N        -0.03663998    -0.04383476     1.43361545    -0.00010498     0.00010207     0.00038400
H         0.96805847    -0.16761158    -0.58928783    -0.00032440    -0.00065972    -0.00038470
H         0.82850398    -0.30759063     1.90197112     0.00038956    -0.00071628     0.00038269
H        -0.99548710    -0.14519406     1.90535536     0.00095932    -0.00084015     0.00000067
H        -1.05121821    -0.06033343    -0.58910511    -0.00000773    -0.00035606    -0.00065142
     6
  Step:    38            Position(A)                                  Velocity(au)
C        -0.03786942     0.05257100    -0.14134726     0.00003378     0.00009491    -0.00037188
N        -0.03725018    -0.04325989     1.43570658    -0.00011269     0.00010454     0.00036731
H         0.96610801    -0.17133712    -0.59136853    -0.00037176    -0.00068499    -0.00036535
H         0.83079773    -0.31155996     1.90419835     0.00042721    -0.00070488     0.00041518
H        -0.98983021    -0.14992890     1.90515052     0.00106235    -0.00086701    -0.00006981
H        -1.05111134    -0.06224047    -0.59272383     0.00004565    -0.00032680    -0.00065286
     6
  Step:    39            Position(A)                                  Velocity(au)
C        -0.03769290     0.05309358    -0.14335197     0.00002885     0.00009329    -0.00034674
N        -0.03789295    -0.04267248     1.43769935    -0.00011658     0.00010660     0.00034782
H         0.96392502    -0.17522762    -0.59334999    -0.00040623    -0.00072119    -0.00035077
H         0.83325393    -0.31542786     1.90658730     0.00044833    -0.00067845     0.00044181
H        -0.98367534    -0.15483392     1.90457922     0.00113770    -0.00090262    -0.00013083
H        -1.05071067    -0.06396701    -0.59636396     0.00009640    -0.00029071    -0.00066189
     6
  Step:    40            Position(A)                                  Velocity(au)
C        -0.03754869     0.05360793    -0.14520140     0.00002216     0.00009209    -0.00031359
N        -0.03854600    -0.04207501     1.43957275    -0.00011641     0.00010815     0.00032270
H         0.96159265    -0.17935340    -0.59526746    -0.00042263    -0.00077119    -0.00034591
H         0.83578112    -0.31910118     1.90910925     0.00045360    -0.00063424     0.00046410
H        -0.97718423    -0.15996188     1.90369632     0.00118292    -0.00094688    -0.00018110
H        -1.05003986    -0.06547185    -0.60008103     0.00013969    -0.00024799    -0.00068461
     6
  Step:    41            Position(A)                                  Velocity(au)
C        -0.03744662     0.05411696    -0.14683677     0.00001423     0.00009147    -0.00026718
N        -0.03918652    -0.04147066     1.44128530    -0.00011249     0.00010908     0.00028820
H         0.95922856    -0.18379738    -0.59719388    -0.00041590    -0.00083322    -0.00035884
H         0.83829457    -0.32247583     1.91174462     0.00044460    -0.00057445     0.00048241
H        -0.97053025    -0.16535611     1.90256672     0.00119714    -0.00099394    -0.00021749
H        -1.04915839    -0.06672283    -0.60397160     0.00016789    -0.00020424    -0.00072724
     6
  Step:    42            Position(A)                                  Velocity(au)
C        -0.03739061     0.05462413    -0.14816960     0.00000652     0.00009140    -0.00020584
N        -0.03979574    -0.04086319     1.44277442    -0.00010586     0.00010941     0.00024309
H         0.95697224    -0.18860989    -0.59925389    -0.00038757    -0.00089747    -0.00039471
H         0.84072030    -0.32548287     1.91446849     0.00042290    -0.00050916     0.00049394
H        -0.96388481    -0.17100381     1.90128017     0.00118228    -0.00103272    -0.00023561
H        -1.04817476    -0.06774082    -0.60816017     0.00017582    -0.00017023    -0.00078896
     6
  Step:    43            Position(A)                                  Velocity(au)
C        -0.03737427     0.05513204    -0.14912272     0.00000036     0.00009167    -0.00013403
N        -0.04036216    -0.04025557     1.44398501    -0.00009750     0.00010934     0.00019044
H         0.95492435    -0.19376445    -0.60157743    -0.00034683    -0.00095330    -0.00044991
H         0.84299119    -0.32813042     1.91723014     0.00038933    -0.00044889     0.00049482
H        -0.95740015    -0.17682520     1.89995010     0.00114176    -0.00105646    -0.00023352
H        -1.04720580    -0.06861338    -0.61273356     0.00016632    -0.00015312    -0.00086078
     6
  Step:    44            Position(A)                                  Velocity(au)
C        -0.03738660     0.05564185    -0.14965751    -0.00000381     0.00009207    -0.00005760
N        -0.04087813    -0.03964937     1.44488863    -0.00008786     0.00010906     0.00013428
H         0.95312189    -0.19919304    -0.60424862    -0.00030313    -0.00099642    -0.00051666
H         0.84504251    -0.33046629     1.91996183     0.00034445    -0.00039758     0.00048335
H        -0.95120944    -0.18273225     1.89868772     0.00107856    -0.00106604    -0.00021263
H        -1.04632831    -0.06944071    -0.61771625     0.00014642    -0.00015271    -0.00093374
     6