     6
  Step:   120            Position(A)                                  Velocity(au)
C        -0.03843274    -0.01400814    -0.07932845     0.00006702    -0.00003968     0.00060030
N        -0.05947123    -0.11264840     1.39168982    -0.00004994     0.00006868    -0.00053172
H         0.76080237     0.67033319    -0.47119090    -0.00113507     0.00127097     0.00074603
H         0.82631963    -0.23870959     1.94399427    -0.00065026    -0.00146696    -0.00043178
H        -0.58202071     0.72753675     1.76645022     0.00132327     0.00115690    -0.00038217
H        -0.93364767    -0.09660148    -0.74133967     0.00035742    -0.00144237     0.00030372
