 Fermi distribution function

Calculation with static geometry


********************************************************************************
 iSCC Total electronic   Diff electronic      SCC error    
   10   -0.54229441E+01   -0.29398706E-12    0.10461288E-06
********************************************************************************

 Total charge:     1.00000000

 Atomic gross charges (e)
 Atom           Charge
    1       0.17649931
    2      -0.06805993
    3       0.18907506
    4       0.27196017
    5       0.28935142
    6       0.14117396

Nr. of electrons (up):     12.00000000
Atom populations (up)
 Atom       Population
    1       3.82350069
    2       5.06805993
    3       0.81092494
    4       0.72803983
    5       0.71064858
    6       0.85882604

l-shell populations (up)
 Atom Sh.   l       Population
    1   1   0       1.29165904
    1   2   1       2.53184165
    2   1   0       1.40608578
    2   2   1       3.66197414
    3   1   0       0.81092494
    4   1   0       0.72803983
    5   1   0       0.71064858
    6   1   0       0.85882604

Orbital populations (up)
 Atom Sh.   l   m       Population  Label
    1   1   0   0       1.29165904  s
    1   2   1  -1       0.58870468  p_y
    1   2   1   0       0.89525390  p_z
    1   2   1   1       1.04788307  p_x
    2   1   0   0       1.40608578  s
    2   2   1  -1       1.29484927  p_y
    2   2   1   0       1.10270671  p_z
    2   2   1   1       1.26441816  p_x
    3   1   0   0       0.81092494  s
    4   1   0   0       0.72803983  s
    5   1   0   0       0.71064858  s
    6   1   0   0       0.85882604  s

Fermi level:                        -0.4861829235 H          -13.2297 eV
Band energy:                        -8.9548612374 H         -243.6742 eV
TS:                                  0.0000000000 H            0.0000 eV
Band free energy (E-TS):            -8.9548612374 H         -243.6742 eV
Extrapolated E(0K):                 -8.9548612374 H         -243.6742 eV
Input / Output electrons (q):     12.0000000000     12.0000000000

Energy H0:                          -5.5570316920 H         -151.2145 eV
Energy SCC:                          0.1340875864 H            3.6487 eV
Total Electronic energy:            -5.4229441056 H         -147.5658 eV
Repulsive energy:                    0.2125683077 H            5.7843 eV
Total energy:                       -5.2103757979 H         -141.7815 eV
Extrapolated to 0:                  -5.2103757979 H         -141.7815 eV
Total Mermin free energy:           -5.2103757979 H         -141.7815 eV
Force related energy:               -5.2103757979 H         -141.7815 eV

SCC converged

Excitation Energy:                   0.1194437518 H            3.2502 eV

Total Forces
    1      0.013263755129      0.010001377113     -0.028253052249
    2     -0.007271854347      0.005378251190      0.014957172112
    3     -0.008284794531      0.002993689752      0.002390290533
    4     -0.006794036530     -0.010322691676      0.005808593653
    5      0.010323267303      0.003780479765      0.002162238821
    6     -0.001236337025     -0.011831106145      0.002934757131

Maximal derivative component:        0.282531E-01 au


