|===============================================================================
|
|  DFTB+ release 20.1
|
|  Copyright (C) 2006 - 2020  DFTB+ developers group
|
|===============================================================================
|
|  When publishing results obtained with DFTB+, please cite the following
|  reference:
|
|  * DFTB+, a software package for efficient approximate density functional
|    theory based atomistic simulations, J. Chem. Phys. 152, 124101 (2020).
|    [doi: 10.1063/1.5143190]
|
|  You should also cite additional publications crediting the parametrization
|  data you use. Please consult the documentation of the SK-files for the
|  references.
|
|===============================================================================

Reading input file 'dftb_in.hsd'
Parser version: 8

--------------------------------------------------------------------------------
Reading SK-files:
Done.


Processed input in HSD format written to 'dftb_pin.hsd'

Starting initialization...
--------------------------------------------------------------------------------
WARNING!
-> Excited state forces are not implemented yet for fractional occupations, kT=  0.3158E-02K
OpenMP threads:              1
Chosen random seed:          506118860
Mode:                        Static calculation
Self consistent charges:     Yes
SCC-tolerance:                 0.100000E-05
Max. scc iterations:                    100
Shell resolved Hubbard:      No
Spin polarisation:           No
Nr. of up electrons:             6.000000
Nr. of down electrons:           6.000000
Periodic boundaries:         No
Electronic solver:           Relatively robust
Mixer:                       Broyden mixer
Mixing parameter:                  0.200000
Maximal SCC-cycles:                     100
Nr. of chrg. vec. in memory:              0
Electronic temperature:        0.100000E-07 H      0.272114E-06 eV
Initial charges:             Set automatically (system chrg:   0.100E+01)
Included shells:             C:  s, p
                             N:  s, p
                             H:  s
Extra options:
                             Mulliken analysis
                             Force calculation
Force type                   original
                             Eigenvector printing

--------------------------------------------------------------------------------

***  Geometry step: 0

 iSCC Total electronic   Diff electronic      SCC error    
    1   -0.54162974E+01    0.00000000E+00    0.66011156E+00
    2   -0.54199090E+01   -0.36116381E-02    0.45656896E+00
    3   -0.54227179E+01   -0.28089345E-02    0.55353632E-01
    4   -0.54229369E+01   -0.21898153E-03    0.21494901E-01
    5   -0.54229429E+01   -0.59664662E-05    0.67986223E-02
    6   -0.54229441E+01   -0.12231397E-05    0.47797613E-03
    7   -0.54229441E+01   -0.31966847E-08    0.11898206E-03
    8   -0.54229441E+01   -0.46872017E-09    0.97325936E-05
    9   -0.54229441E+01   -0.31326053E-11    0.30173031E-05
   10   -0.54229441E+01   -0.29398706E-12    0.10461288E-06
>> Charges saved for restart in charges.bin

Total Energy:                       -5.0909320462 H         -138.5313 eV
Extrapolated to 0:                  -5.2103757979 H         -141.7815 eV
Total Mermin free energy:           -5.0909320462 H         -138.5313 eV
Force related energy:               -5.2103757979 H         -141.7815 eV

--------------------------------------------------------------------------------
DFTB+ running times                          cpu [s]             wall clock [s]
--------------------------------------------------------------------------------
SCC                                    +     0.01  ( 55.1%)      0.03  ( 64.4%)
Post-SCC processing                    +     0.00  ( 36.1%)      0.01  ( 26.7%)
--------------------------------------------------------------------------------
Missing                                +     0.00  (  8.8%)      0.00  (  8.9%)
Total                                  =     0.01  (100.0%)      0.05  (100.0%)
--------------------------------------------------------------------------------
