     6
  Step:     0            Position(A)                                  Velocity(au)
C        -0.02765389     0.02925159     0.00705276     0.00004689    -0.00003735     0.00019533
N        -0.04034346    -0.06516707     1.30102846    -0.00015571    -0.00011358    -0.00026975
H         0.87600219    -0.02930977    -0.52272633    -0.00044005     0.00050929     0.00080745
H         0.81020251    -0.09538798     1.85995767     0.00092185     0.00058463     0.00093177
H        -0.99547032    -0.00681938     1.89292801     0.00137871     0.00079170    -0.00002050
H        -1.01352023     0.01876025    -0.50170826    -0.00025543     0.00013778    -0.00029778
     6
  Step:     1            Position(A)                                  Velocity(au)
C        -0.02744302     0.02906397     0.00805281     0.00002963    -0.00003113     0.00016945
N        -0.04125724    -0.06579758     1.29967847    -0.00017682    -0.00011713    -0.00022228
H         0.87415516    -0.02656953    -0.51881016    -0.00022893     0.00049274     0.00061986
H         0.81539044    -0.09217947     1.86524458     0.00095863     0.00058940     0.00098849
H        -0.98718243    -0.00250457     1.89240262     0.00164363     0.00078615    -0.00016791
H        -1.01496335     0.01949412    -0.50354293    -0.00026911     0.00013040    -0.00037073
     6
  Step:     2            Position(A)                                  Velocity(au)
C        -0.02732979     0.02891101     0.00890652     0.00001144    -0.00002469     0.00014176
N        -0.04227791    -0.06644852     1.29859670    -0.00019454    -0.00012096    -0.00017188
H         0.87349772    -0.02391921    -0.51594503    -0.00000829     0.00047634     0.00042492
H         0.82068988    -0.08893999     1.87077173     0.00096269     0.00059538     0.00101920
H        -0.97748907     0.00178112     1.89109106     0.00188901     0.00078082    -0.00030612
H        -1.01646433     0.02018686    -0.50576404    -0.00027630     0.00012265    -0.00043874
     6
  Step:     3            Position(A)                                  Velocity(au)
C        -0.02731778     0.02879376     0.00960410    -0.00000709    -0.00001810     0.00011233
N        -0.04338621    -0.06712134     1.29779755    -0.00020857    -0.00012503    -0.00011925
H         0.87406440    -0.02135673    -0.51416007     0.00021495     0.00046047     0.00022701
H         0.82592549    -0.08566403     1.87639805     0.00093565     0.00060205     0.00102450
H        -0.96651029     0.00604019     1.88905265     0.00210912     0.00077613    -0.00043140
H        -1.01798700     0.02083630    -0.50834426    -0.00027677     0.00011447    -0.00050157
     6
  Step:     4            Position(A)                                  Velocity(au)
C        -0.02740743     0.02871289     0.01013629    -0.00002540    -0.00001141     0.00008130
N        -0.04456132    -0.06781733     1.29729120    -0.00021862    -0.00012930    -0.00006524
H         0.87585092    -0.01887809    -0.51345979     0.00043359     0.00044543     0.00003072
H         0.83093312    -0.08234897     1.88198761     0.00087994     0.00060885     0.00100561
H        -0.95439902     0.01027795     1.88636821     0.00229757     0.00077264    -0.00053958
H        -1.01949428     0.02144004    -0.51125512    -0.00027040     0.00010583    -0.00055900
     6
  Step:     5            Position(A)                                  Velocity(au)
C        -0.02759603     0.02866873     0.01049462    -0.00004292    -0.00000471     0.00004886
N        -0.04578077    -0.06853756     1.29708296    -0.00022437    -0.00013372    -0.00001081
H         0.87881361    -0.01647778    -0.51382359     0.00064053     0.00043145    -0.00015938
H         0.83556371    -0.07899517     1.88741277     0.00079864     0.00061523     0.00096433
H        -0.94134447     0.01450313     1.88314248     0.00244747     0.00077104    -0.00062610
H        -1.02094874     0.02199548    -0.51446712    -0.00025720     0.00009670    -0.00061083
     6
  Step:     6            Position(A)                                  Velocity(au)
C        -0.02787782     0.02866124     0.01067177    -0.00005911     0.00000194     0.00001526
N        -0.04702049    -0.06928296     1.29717270    -0.00022556    -0.00013829     0.00004298
H         0.88287116    -0.01414937    -0.51520657     0.00082919     0.00041865    -0.00033897
H         0.83968628    -0.07560595     1.89255672     0.00069527     0.00062067     0.00090283
H        -0.92757451     0.01872864     1.87950608     0.00255171     0.00077216    -0.00068616
H        -1.02231325     0.02249986    -0.51794992    -0.00023731     0.00008705    -0.00065692
     6
  Step:     7            Position(A)                                  Velocity(au)
C        -0.02824438     0.02869003     0.01066204    -0.00007354     0.00000848    -0.00001913
N        -0.04825479    -0.07005433     1.29755441    -0.00022191    -0.00014297     0.00009504
H         0.88790842    -0.01188593    -0.51754157     0.00099393     0.00040708    -0.00050427
H         0.84318971    -0.07218744     1.89731530     0.00057368     0.00062470     0.00082364
H        -0.91335636     0.02297245     1.87561643     0.00260347     0.00077700    -0.00071503
H        -1.02355166     0.02295030    -0.52167249    -0.00021099     0.00007689    -0.00069717
     6
  Step:     8            Position(A)                                  Velocity(au)
C        -0.02868510     0.02875434     0.01046178    -0.00008585     0.00001484    -0.00005390
N        -0.04945663    -0.07085243     1.29821604    -0.00021325    -0.00014777     0.00014427
H         0.89378240    -0.00968051    -0.52074237     0.00113038     0.00039674    -0.00065216
H         0.84598407    -0.06874814     1.90159856     0.00043791     0.00062693     0.00072958
H        -0.89899397     0.02725845     1.87165662     0.00259684     0.00078670    -0.00070843
H        -1.02462945     0.02334389    -0.52560340    -0.00017862     0.00006621    -0.00073158
     6
  Step:     9            Position(A)                                  Velocity(au)
C        -0.02918776     0.02885311     0.01006977    -0.00009584     0.00002097    -0.00008858
N        -0.05059809    -0.07167806     1.29913969    -0.00019951    -0.00015271     0.00018966
H         0.90032942    -0.00752645    -0.52470775     0.00123559     0.00038756    -0.00078039
H         0.84800158    -0.06529853     1.90533211     0.00029209     0.00062711     0.00062362
H        -0.88482153     0.03161700     1.86783199     0.00252753     0.00080248    -0.00066304
H        -1.02551438     0.02367778    -0.52971130    -0.00014071     0.00005503    -0.00076024
     6
  Step:    10            Position(A)                                  Velocity(au)
C        -0.02973922     0.02898502     0.00948742    -0.00010339     0.00002683    -0.00012269
N        -0.05165112    -0.07253213     1.30030215    -0.00018079    -0.00015782     0.00023035
H         0.90737307    -0.00541761    -0.52932607     0.00130816     0.00037946    -0.00088758
H         0.84919681    -0.06185040     1.90845792     0.00014031     0.00062508     0.00050886
H        -0.87119293     0.03608519     1.86436367     0.00239367     0.00082552    -0.00057701
H        -1.02617720     0.02394922    -0.53396545    -0.00009788     0.00004340    -0.00078337
     6
  Step:    11            Position(A)                                  Velocity(au)
C        -0.03032608     0.02914847     0.00871892    -0.00010853     0.00003237    -0.00015574
N        -0.05258860    -0.07341572     1.30167591    -0.00015738    -0.00016314     0.00026571
H         0.91473271    -0.00334845    -0.53448032     0.00134819     0.00037235    -0.00097333
H         0.84954639    -0.05841623     1.91093482    -0.00001349     0.00062082     0.00038841
H        -0.85846651     0.04070625     1.86147896     0.00219637     0.00085684    -0.00045045
H        -1.02659205     0.02415565    -0.53833641    -0.00005079     0.00003135    -0.00080132
     6
  Step:    12            Position(A)                                  Velocity(au)
C        -0.03093532     0.02934175     0.00777109    -0.00011139     0.00003758    -0.00018728
N        -0.05338557    -0.07433009     1.30323049    -0.00012982    -0.00016870     0.00029538
H         0.92223120    -0.00131405    -0.54005295     0.00135698     0.00036611    -0.00103797
H         0.84904818    -0.05500847     1.91273850    -0.00016556     0.00061441     0.00026529
H        -0.84698712     0.04552827     1.85939936     0.00194014     0.00089711    -0.00028580
H        -1.02673691     0.02429472    -0.54279665    -0.00000015     0.00001892    -0.00081453
     6
  Step:    13            Position(A)                                  Velocity(au)
C        -0.03155477     0.02956301     0.00665309    -0.00011217     0.00004245    -0.00021696
N        -0.05402059    -0.07527660     1.30493405    -0.00009888    -0.00017452     0.00031928
H         0.92970083     0.00068991    -0.54592965     0.00133682     0.00036065    -0.00108251
H         0.84772015    -0.05163901     1.91386113    -0.00031245     0.00060602     0.00014243
H        -0.83706588     0.05060172     1.85832648     0.00163297     0.00094646    -0.00008799
H        -1.02659370     0.02436430    -0.54732109     0.00005332     0.00000613    -0.00082352
     6
  Step:    14            Position(A)                                  Velocity(au)
C        -0.03217351     0.02981039     0.00537614    -0.00011111     0.00004698    -0.00024443
N        -0.05447709    -0.07625657     1.30675497    -0.00006554    -0.00018055     0.00033761
H         0.93698830     0.00266719    -0.55200270     0.00129065     0.00035588    -0.00110838
H         0.84559910    -0.04831867     1.91431074    -0.00045091     0.00059587     0.00002256
H        -0.82896091     0.05597620     1.85842808     0.00128600     0.00100438     0.00013566
H        -1.02614830     0.02436244    -0.55188746     0.00010892    -0.00000696    -0.00082881
     6
  Step:    15            Position(A)                                  Velocity(au)
C        -0.03278206     0.03008201     0.00395309    -0.00010848     0.00005118    -0.00026944
N        -0.05474451    -0.07727103     1.30866334    -0.00003095    -0.00018673     0.00035079
H         0.94395760     0.00462103    -0.55817304     0.00122168     0.00035168    -0.00111724
H         0.84273935    -0.04505690     1.91411039    -0.00057792     0.00058421    -0.00009169
H        -0.82286039     0.06169627     1.85982504     0.00091299     0.00106952     0.00037575
H        -1.02539053     0.02428738    -0.55647633     0.00016596    -0.00002035    -0.00083090
     6
  Step:    16            Position(A)                                  Velocity(au)
C        -0.03337245     0.03037606     0.00239809    -0.00010455     0.00005505    -0.00029179
N        -0.05481916    -0.07832046     1.31063212     0.00000360    -0.00019293     0.00035941
H         0.95049095     0.00655411    -0.56435110     0.00113322     0.00034793    -0.00111084
H         0.83921161    -0.04186164     1.91329735    -0.00069062     0.00057130    -0.00019785
H        -0.81886999     0.06779712     1.86258108     0.00052937     0.00113978     0.00062140
H        -1.02431400     0.02413749    -0.56107101     0.00022375    -0.00003401    -0.00083021
     6
  Step:    17            Position(A)                                  Velocity(au)
C        -0.03393816     0.03069077     0.00072635    -0.00009957     0.00005860    -0.00031129
N        -0.05470467    -0.07940448     1.31263781     0.00003680    -0.00019895     0.00036411
H         0.95648913     0.00846851    -0.57045708     0.00102855     0.00034450    -0.00109088
H         0.83510221    -0.03873921     1.91192244    -0.00078626     0.00055742    -0.00029356
H        -0.81700643     0.07430033     1.86669666     0.00015114     0.00121235     0.00086105
H        -1.02291618     0.02391126    -0.56565710     0.00028159    -0.00004791    -0.00082710
     6
  Step:    18            Position(A)                                  Velocity(au)
C        -0.03447407     0.03102441    -0.00104607    -0.00009377     0.00006183    -0.00032780
N        -0.05441196    -0.08052162     1.31466069     0.00006738    -0.00020457     0.00036557
H         0.96187086     0.01036563    -0.57642070     0.00091078     0.00034125    -0.00105900
H         0.83051242    -0.03569432     1.91004937    -0.00086223     0.00054281    -0.00037657
H        -0.81719774     0.08121063     1.87210785    -0.00020620     0.00128397     0.00108340
H        -1.02119847     0.02360736    -0.57022216     0.00033872    -0.00006202    -0.00082187
     6
  Step:    19            Position(A)                                  Velocity(au)
C        -0.03497621     0.03137527    -0.00290240    -0.00008736     0.00006476    -0.00034119
N        -0.05395878    -0.08166914     1.31668468     0.00009419    -0.00020958     0.00036438
H         0.96657154     0.01224617    -0.58218040     0.00078287     0.00033806    -0.00101674
H         0.82555720    -0.03273024     1.90775381    -0.00091616     0.00052779    -0.00044478
H        -0.81928908     0.08851400     1.87869001    -0.00052898     0.00135121     0.00127830
H        -1.01916651     0.02322473    -0.57475530     0.00039438    -0.00007628    -0.00081474
     6
  Step:    20            Position(A)                                  Velocity(au)
C        -0.03544170     0.03174169    -0.00482536    -0.00008051     0.00006737    -0.00035141
N        -0.05336867    -0.08284309     1.31869684     0.00011631    -0.00021376     0.00036107
H         0.97054250     0.01411022    -0.58768291     0.00064767     0.00033483    -0.00096561
H         0.82036432    -0.02984817     1.90512269    -0.00094601     0.00051273    -0.00049634
H        -0.82305712     0.09617762     1.88626723    -0.00080631     0.00141086     0.00143765
H        -1.01683007     0.02276239    -0.57924684     0.00044779    -0.00009068    -0.00080596
     6
  Step:    21            Position(A)                                  Velocity(au)
C        -0.03586858     0.03212199    -0.00679738    -0.00007339     0.00006969    -0.00035844
N        -0.05266965    -0.08403846     1.32068679     0.00013308    -0.00021696     0.00035606
H         0.97375023     0.01595737    -0.59288309     0.00050789     0.00033150    -0.00090711
H         0.81507179    -0.02704723     1.90225240    -0.00095026     0.00049805    -0.00052981
H        -0.82822614     0.10415175     1.89462479    -0.00103060     0.00146025     0.00155593
H        -1.01420327     0.02221960    -0.58368841     0.00049820    -0.00010518    -0.00079579
     6
  Step:    22            Position(A)                                  Velocity(au)
C        -0.03625570     0.03251458    -0.00880092    -0.00006614     0.00007172    -0.00036237
N        -0.05189265    -0.08524947     1.32264600     0.00014415    -0.00021910     0.00034967
H         0.97617554     0.01778692    -0.59774378     0.00036602     0.00032807    -0.00084274
H         0.80982477    -0.02432418     1.89924649    -0.00092814     0.00048422    -0.00054422
H        -0.83448771     0.11237346     1.90352431    -0.00119790     0.00149756     0.00163042
H        -1.01130445     0.02159581    -0.58807310     0.00054493    -0.00011975    -0.00078460
     6
  Step:    23            Position(A)                                  Velocity(au)
C        -0.03660257     0.03291793    -0.01081899    -0.00005886     0.00007350    -0.00036335
N        -0.05106985    -0.08647005     1.32456743     0.00014947    -0.00022018     0.00034215
H         0.97781235     0.01959825    -0.60223577     0.00022435     0.00032460    -0.00077399
H         0.80477128    -0.02167330     1.89621262    -0.00087972     0.00047175    -0.00053929
H        -0.84152042     0.12077173     1.91271922    -0.00130770     0.00152192     0.00166117
H        -1.00815566     0.02089056    -0.59239588     0.00058740    -0.00013441    -0.00077282
     6
  Step:    24            Position(A)                                  Velocity(au)
C        -0.03690927     0.03333067    -0.01283545    -0.00005166     0.00007506    -0.00036162
N        -0.05023301    -0.08769424     1.32644509     0.00014925    -0.00022027     0.00033370
H         0.97866659     0.02139111    -0.60633791     0.00008483     0.00032121    -0.00070234
H         0.80005668    -0.01908605     1.89325838    -0.00080603     0.00046114    -0.00051545
H        -0.84900790     0.12927232     1.92196925    -0.00136247     0.00153337     0.00165053
H        -1.00478215     0.02010336    -0.59665416     0.00062520    -0.00014919    -0.00076097
     6
  Step:    25            Position(A)                                  Velocity(au)
C        -0.03717636     0.03375164    -0.01483552    -0.00004461     0.00007646    -0.00035745
N        -0.04941209    -0.08891663     1.32827391     0.00014394    -0.00021952     0.00032450
H         0.97875459     0.02316594    -0.61003683    -0.00005090     0.00031806    -0.00062914
H         0.79581859    -0.01655133     1.89048742    -0.00070892     0.00045285    -0.00047378
H        -0.85665363     0.13780313     1.93105200    -0.00136690     0.00153277     0.00160261
H        -1.00121143     0.01923347    -0.60084814     0.00065806    -0.00016418    -0.00074962
     6
  Step:    26            Position(A)                                  Velocity(au)
C        -0.03740477     0.03417994    -0.01680607    -0.00003775     0.00007774    -0.00035119
N        -0.04863415    -0.09013270     1.33004965     0.00013411    -0.00021812     0.00031470
H         0.97810114     0.02492416    -0.61332647    -0.00018162     0.00031536    -0.00055560
H         0.79218194    -0.01405573     1.88799558    -0.00059105     0.00044725    -0.00041601
H        -0.86419145     0.14629844     1.93977110    -0.00132700     0.00152159     0.00152246
H        -0.99747238     0.01827966    -0.60498099     0.00068585    -0.00017949    -0.00073931
     6
  Step:    27            Position(A)                                  Velocity(au)
C        -0.03759565     0.03461498    -0.01873577    -0.00003113     0.00007896    -0.00034313
N        -0.04792265    -0.09133900     1.33176895     0.00012045    -0.00021625     0.00030446
H         0.97673756     0.02666826    -0.61620722    -0.00030641     0.00031329    -0.00048271
H         0.78925449    -0.01158422     1.88586725    -0.00045571     0.00044455    -0.00034439
H        -0.87139111     0.15470169     1.94796024    -0.00124932     0.00150157     0.00141548
H        -0.99359443     0.01724002    -0.60905879     0.00070855    -0.00019529    -0.00073052
     6
  Step:    28            Position(A)                                  Velocity(au)
C        -0.03775031     0.03505645    -0.02061500    -0.00002474     0.00008017    -0.00033354
N        -0.04729708    -0.09253316     1.33342931     0.00010365    -0.00021409     0.00029390
H         0.97469981     0.02840192    -0.61868489    -0.00042464     0.00031206    -0.00041130
H         0.78712328    -0.00912093     1.88417260    -0.00030671     0.00044480    -0.00026159
H        -0.87805969     0.16296680     1.95548382    -0.00114028     0.00147453     0.00128687
H        -0.98960703     0.01611178    -0.61309021     0.00072615    -0.00021175    -0.00072364
     6
  Step:    29            Position(A)                                  Velocity(au)
C        -0.03787013     0.03550432    -0.02243564    -0.00001861     0.00008142    -0.00032265
N        -0.04677290    -0.09371379     1.33502908     0.00008440    -0.00021179     0.00028316
H         0.97202719     0.03012988    -0.62076962    -0.00053582     0.00031184    -0.00034198
H         0.78585222    -0.00665015     1.88296546    -0.00014824     0.00044787    -0.00017058
H        -0.88403991     0.17105825     1.96223507    -0.00100576     0.00144219     0.00114129
H        -0.98553940     0.01489118    -0.61708588     0.00073868    -0.00022904    -0.00071891
     6
  Step:    30            Position(A)                                  Velocity(au)
C        -0.03795651     0.03595878    -0.02419082    -0.00001271     0.00008272    -0.00031061
N        -0.04636169    -0.09488032     1.33656745     0.00006336    -0.00020945     0.00027235
H         0.96876142     0.03185791    -0.62247491    -0.00063955     0.00031276    -0.00027524
H         0.78548041    -0.00415733     1.88228207     0.00001527     0.00045342    -0.00007453
H        -0.88920626     0.17895018     1.96813246    -0.00085092     0.00140604     0.00098279
H        -0.98142049     0.01357344    -0.62105772     0.00074609    -0.00024734    -0.00071645
     6
  Step:    31            Position(A)                                  Velocity(au)
C        -0.03801083     0.03642020    -0.02587454    -0.00000705     0.00008411    -0.00029753
N        -0.04607136    -0.09603274     1.33804436     0.00004116    -0.00020716     0.00026158
H         0.96494649     0.03359262    -0.62381689    -0.00073534     0.00031498    -0.00021149
H         0.78602129    -0.00163012     1.88214035     0.00017921     0.00046097     0.00002331
H        -0.89346079     0.18662513     1.97311597    -0.00068015     0.00136735     0.00081474
H        -0.97727913     0.01215273    -0.62501805     0.00074834    -0.00026684    -0.00071622
     6
  Step:    32            Position(A)                                  Velocity(au)
C        -0.03803450     0.03688902    -0.02748139    -0.00000164     0.00008559    -0.00028347
N        -0.04590646    -0.09717139     1.33946044     0.00001836    -0.00020493     0.00025096
H         0.96062878     0.03534144    -0.62481393    -0.00082266     0.00031860    -0.00015111
H         0.78746236     0.00094080     1.88253982     0.00033893     0.00046986     0.00011963
H        -0.89672849     0.19407254     1.97714319    -0.00049719     0.00132716     0.00063997
H        -0.97314416     0.01062225    -0.62897889     0.00074534    -0.00028769    -0.00071806
     6
  Step:    33            Position(A)                                  Velocity(au)
C        -0.03802898     0.03736576    -0.02900633     0.00000350     0.00008715    -0.00026847
N        -0.04586850    -0.09829681     1.34081694    -0.00000451    -0.00020278     0.00024057
H         0.95585770     0.03711248    -0.62548639    -0.00090081     0.00032374    -0.00009448
H         0.78976585     0.00356094     1.88346207     0.00048996     0.00047936     0.00021129
H        -0.89895375     0.20128760     1.98018634    -0.00030526     0.00128636     0.00046089
H        -0.96904454     0.00897427    -0.63295117     0.00073704    -0.00031005    -0.00072167
     6
  Step:    34            Position(A)                                  Velocity(au)
C        -0.03799589     0.03785092    -0.03044450     0.00000834     0.00008880    -0.00025253
N        -0.04595619    -0.09940952     1.34211562    -0.00002696    -0.00020070     0.00023048
H         0.95068641     0.03891463    -0.62585677    -0.00096895     0.00033054    -0.00004203
H         0.79287009     0.00623155     1.88487186     0.00062807     0.00048863     0.00029533
H        -0.90009767     0.20827037     1.98223016    -0.00010723     0.00124577     0.00027968
H        -0.96500926     0.00720015    -0.63694413     0.00072341    -0.00033406    -0.00072669
     6
  Step:    35            Position(A)                                  Velocity(au)
C        -0.03793706     0.03834497    -0.03179113     0.00001282     0.00009051    -0.00023569
N        -0.04616578    -0.10051003     1.34335859    -0.00004857    -0.00019868     0.00022076
H         0.94517266     0.04075752    -0.62594991    -0.00102613     0.00033915     0.00000577
H         0.79669186     0.00894930     1.88671885     0.00074955     0.00049684     0.00036917
H        -0.90013626     0.21502531     1.98327050     0.00009423     0.00120615     0.00009832
H        -0.96106714     0.00529044    -0.64096478     0.00070449    -0.00035985    -0.00073266
     6
  Step:    36            Position(A)                                  Velocity(au)
C        -0.03785462     0.03884832    -0.03304157     0.00001689     0.00009229    -0.00021795
N        -0.04649135    -0.10159876     1.34454826    -0.00006895    -0.00019669     0.00021145
H         0.93937927     0.04265173    -0.62579318    -0.00107137     0.00034973     0.00004843
H         0.80112953     0.01170632     1.88893982     0.00085131     0.00050316     0.00043065
H        -0.89905938     0.22156116     1.98331358     0.00029656     0.00116831    -0.00008125
H        -0.95724638     0.00323485    -0.64501743     0.00068043    -0.00038758    -0.00073904
     6
  Step:    37            Position(A)                                  Velocity(au)
C        -0.03775109     0.03936127    -0.03419131     0.00002046     0.00009410    -0.00019938
N        -0.04692508    -0.10267608     1.34568711    -0.00008778    -0.00019475     0.00020254
H         0.93337437     0.04460885    -0.62541656    -0.00110365     0.00036249     0.00008545
H         0.80606680     0.01449023     1.89146127     0.00093099     0.00050679     0.00047811
H        -0.89687042     0.22789118     1.98237579     0.00049722     0.00113313    -0.00025708
H        -0.95357400     0.00102230    -0.64910333     0.00065151    -0.00041736    -0.00074523
     6
  Step:    38            Position(A)                                  Velocity(au)
C        -0.03762945     0.03988403    -0.03523613     0.00002344     0.00009592    -0.00018002
N        -0.04745754    -0.10374237     1.34677759    -0.00010478    -0.00019286     0.00019401
H         0.92723131     0.04664171    -0.62485263    -0.00112201     0.00037774     0.00011632
H         0.81137698     0.01728460     1.89420242     0.00098703     0.00050703     0.00051045
H        -0.89358648     0.23403362     1.98048391     0.00069359     0.00110161    -0.00042718
H        -0.95007516    -0.00135910    -0.65322025     0.00061813    -0.00044941    -0.00075062
     6
  Step:    39            Position(A)                                  Velocity(au)
C        -0.03749320     0.04041672    -0.03617206     0.00002573     0.00009775    -0.00015996
N        -0.04807797    -0.10479811     1.34782188    -0.00011972    -0.00019104     0.00018583
H         0.92102870     0.04876517    -0.62413668    -0.00112556     0.00039575     0.00014058
H         0.81692735     0.02006919     1.89707791     0.00101875     0.00050325     0.00052715
H        -0.88923871     0.24001245     1.97767541     0.00088294     0.00107489    -0.00058947
H        -0.94677254    -0.00392271    -0.65736259     0.00058084    -0.00048388    -0.00075452
     6
  Step:    40            Position(A)                                  Velocity(au)
C        -0.03734635     0.04095932    -0.03699582     0.00002725     0.00009955    -0.00013935
N        -0.04877451    -0.10584396     1.34882184    -0.00013241    -0.00018936     0.00017791
H         0.91484932     0.05099523    -0.62330611    -0.00111364     0.00041680     0.00015790
H         0.82258398     0.02282074     1.90000153     0.00102624     0.00049494     0.00052826
H        -0.88387343     0.24585825     1.97399928     0.00106240     0.00105430    -0.00074175
H        -0.94368543    -0.00668217    -0.66152060     0.00054033    -0.00052086    -0.00075620
     6
  Step:    41            Position(A)                                  Velocity(au)
C        -0.03719342     0.04151170    -0.03770486     0.00002791     0.00010130    -0.00011835
N        -0.04953447    -0.10688097     1.34977880    -0.00014272    -0.00018788     0.00017016
H         0.90877904     0.05334981    -0.62239986    -0.00108587     0.00044126     0.00016806
H         0.82821557     0.02551331     1.90288859     0.00101031     0.00048166     0.00051428
H        -0.87755270     0.25160933     1.96951649     0.00122900     0.00104137    -0.00088175
H        -0.94082909    -0.00965199    -0.66568055     0.00049740    -0.00056051    -0.00075494
     6
  Step:    42            Position(A)                                  Velocity(au)
C        -0.03703940     0.04207361    -0.03829764     0.00002761     0.00010299    -0.00009718
N        -0.05034443    -0.10791062     1.35069355    -0.00015054    -0.00018672     0.00016249
H         0.90290515     0.05584896    -0.62145756    -0.00104218     0.00046956     0.00017104
H         0.83369699     0.02811881     1.90565840     0.00097239     0.00046307     0.00048614
H        -0.87035488     0.25731288     1.96430034     0.00137974     0.00103784    -0.00100722
H        -0.93821422    -0.01284755    -0.66982466     0.00045295    -0.00060300    -0.00075002
     6
  Step:    43            Position(A)                                  Velocity(au)
C        -0.03688965     0.04264470    -0.03877388     0.00002632     0.00010460    -0.00007609
N        -0.05119048    -0.10893503     1.35156629    -0.00015578    -0.00018600     0.00015480
H         0.89731447     0.05851525    -0.62051833    -0.00098286     0.00050218     0.00016705
H         0.83891239     0.03060732     1.90823637     0.00091440     0.00043887     0.00044512
H        -0.86237479     0.26302618     1.95843645     0.00151163     0.00104566    -0.00111594
H        -0.93584636    -0.01628529    -0.67393118     0.00040798    -0.00064852    -0.00074073
     6
  Step:    44            Position(A)                                  Velocity(au)
C        -0.03674983     0.04322451    -0.03913482     0.00002398     0.00010611    -0.00005540
N        -0.05205837    -0.10995703     1.35239673    -0.00015840    -0.00018585     0.00014702
H         0.89209137     0.06137416    -0.61961962    -0.00090862     0.00053970     0.00015655
H         0.84375762     0.03294743     1.91055579     0.00083866     0.00040881     0.00039279
H        -0.85372327     0.26881771     1.95202234     0.00162187     0.00106699    -0.00120582
H        -0.93372547    -0.01998280    -0.67797449     0.00036354    -0.00069730    -0.00072641
     6