|===============================================================================
|
|  DFTB+ release 20.1
|
|  Copyright (C) 2006 - 2020  DFTB+ developers group
|
|===============================================================================
|
|  When publishing results obtained with DFTB+, please cite the following
|  reference:
|
|  * DFTB+, a software package for efficient approximate density functional
|    theory based atomistic simulations, J. Chem. Phys. 152, 124101 (2020).
|    [doi: 10.1063/1.5143190]
|
|  You should also cite additional publications crediting the parametrization
|  data you use. Please consult the documentation of the SK-files for the
|  references.
|
|===============================================================================

Reading input file 'dftb_in.hsd'
Parser version: 8

--------------------------------------------------------------------------------
Reading SK-files:
Done.


Processed input in HSD format written to 'dftb_pin.hsd'

Starting initialization...
--------------------------------------------------------------------------------
OpenMP threads:              1
Chosen random seed:          511177942
Mode:                        Static calculation
Self consistent charges:     Yes
SCC-tolerance:                 0.100000E-05
Max. scc iterations:                   1000
Shell resolved Hubbard:      No
Spin polarisation:           No
Nr. of up electrons:             6.000000
Nr. of down electrons:           6.000000
Periodic boundaries:         No
Electronic solver:           Relatively robust
Maximal SCC-cycles:                    1000
Initial charges:             Set automatically (system chrg:   0.100E+01)
Included shells:             C:  s, p
                             N:  s, p
                             H:  s
Spin coupling constants:     C   1(s)-1(s):  -0.455900E-01
                             C   1(s)-2(p):  -0.293000E-01
                             C   2(p)-1(s):  -0.293000E-01
                             C   2(p)-2(p):  -0.275500E-01
                             N   1(s)-1(s):  -0.468700E-01
                             N   1(s)-2(p):  -0.317000E-01
                             N   2(p)-1(s):  -0.317000E-01
                             N   2(p)-2(p):  -0.307200E-01
                             H   1(s)-1(s):  -0.792500E-01
Range separated hybrid:      Yes
  Screening parameter omega:   0.300000E+00
  Range separated algorithm:   MatrixBased
Extra options:
                             Mulliken analysis
                             Force calculation
Force type                   original
                             Eigenvector printing


REKS Calcuation:             Yes
SSR(2,2) Calcuation:         Yes
Energy Functional:           (PPS+OSS)/2
Number of Core Orbitals:                  5
Number of Active Orbitals:                2
Number of Basis:                         12
Number of States:                         2
State-Averaging Weight:          0.500000
                                 0.500000
State of Interest:                        1
Initial Guess:               Diagonalize H0 matrix
Newton-Raphson for FON opt:  Yes
NR max. Iterations:                      50
Level Shifting:              Yes
Shift Value:                     0.300000
W Scale Factor:              C  =    3.000000
                             N  =    3.000000
                             H  =    3.000000
Transition Dipole:           No
Gradient of Microstate:      No
CP-REKS Solver:              Preconditioned Conjugate-Gradient
CG max. Iterations:                     100
CG Tolerance:                  0.100000E-07
Memory for A and Hxc:        Direct Updating Without Saving
Non-Adiabatic Coupling:      Yes

--------------------------------------------------------------------------------

***  Geometry step: 0

  iSCC       reks energy        Diff energy         x_a       SCC error   
    1       -6.2720688373       0.0000000000     0.999917    1.19689474
    2       -6.2783875249      -0.0063186876     0.999949    0.04037028
    3       -6.2803435910      -0.0019560661     0.999963    0.01329280
    4       -6.2811861967      -0.0008426057     0.999969    0.00784734
    5       -6.2815802403      -0.0003940436     0.999972    0.00627831
    6       -6.2817708190      -0.0001905787     0.999974    0.00479293
    7       -6.2818643601      -0.0000935411     0.999975    0.00355400
    8       -6.2819105731      -0.0000462130     0.999976    0.00258737
    9       -6.2819334721      -0.0000228989     0.999976    0.00186175
   10       -6.2819448352      -0.0000113631     0.999976    0.00132962
   11       -6.2819504786      -0.0000056434     0.999976    0.00094500
   12       -6.2819532832      -0.0000028045     0.999976    0.00066953
   13       -6.2819546777      -0.0000013945     0.999976    0.00047339
   14       -6.2819553716      -0.0000006939     0.999976    0.00033426
   15       -6.2819557170      -0.0000003455     0.999976    0.00023581
   16       -6.2819558892      -0.0000001721     0.999976    0.00016626
   17       -6.2819559750      -0.0000000859     0.999977    0.00011718
   18       -6.2819560179      -0.0000000429     0.999977    0.00008257
   19       -6.2819560393      -0.0000000214     0.999977    0.00005817
   20       -6.2819560500      -0.0000000107     0.999977    0.00004099
   21       -6.2819560554      -0.0000000054     0.999977    0.00002888
   22       -6.2819560581      -0.0000000027     0.999977    0.00002035
   23       -6.2819560595      -0.0000000014     0.999977    0.00001434
   24       -6.2819560602      -0.0000000007     0.999977    0.00001010
   25       -6.2819560605      -0.0000000003     0.999977    0.00000712
   26       -6.2819560607      -0.0000000002     0.999977    0.00000502
   27       -6.2819560608      -0.0000000001     0.999977    0.00000354
   28       -6.2819560608      -0.0000000000     0.999977    0.00000250
   29       -6.2819560608      -0.0000000000     0.999977    0.00000176
   30       -6.2819560609      -0.0000000000     0.999977    0.00000124
   31       -6.2819560609      -0.0000000000     0.999977    0.00000088
  
--------------------------------------------------
 Final SA-REKS(2,2) energy:      -6.28195606
  
 State     Energy      FON(1)    FON(2)   Spin
  PPS   -6.41220156   1.999953  0.000047  0.00
  OSS   -6.15171056   1.000000  1.000000  0.00
 Trip   -6.22843685   1.000000  1.000000  1.00
--------------------------------------------------

 Lagrangian Wab:  -0.00104516 -0.00104497

--------------------------------------------------
 SSR: 2SI-2SA-REKS(2,2) Hamiltonian matrix
               PPS           OSS
   PPS    -6.41220156   -0.00147091
   OSS    -0.00147091   -6.15171056
--------------------------------------------------

----------------------------------------------------------------
 SSR: 2SI-2SA-REKS(2,2) states
                    E_n       C_{PPS}    C_{OSS}
 SSR state  1   -6.41220986  -0.999984  -0.005646
 SSR state  2   -6.15170226   0.005646  -0.999984
----------------------------------------------------------------

 unrelaxed SSR FONs for S0:  1.999921  0.000079

Total Energy:                       -6.4122098637 H         -174.4851 eV
Extrapolated to 0:                  -6.4122098637 H         -174.4851 eV

----------------------------------------------------------------------------------
 Solving CP-REKS equation for  1 state vector...
----------------------------------------------------------------------------------
  CG solver: Constructing Y initial guess
  CG solver: Iteration    1    eps =    0.000026017721
  CG solver: Iteration    2    eps =    0.000001405977
  CG solver: Iteration    3    eps =    0.000000240472
  CG solver: Iteration    4    eps =    0.000000005927
  Convergence reached in CG solver after    4 iterations
  CG solver: Calculating converged R, Z, Q2 matrix
----------------------------------------------------------------------------------

----------------------------------------------------------------------------------
 Solving CP-REKS equation for SI between  1 and  2 state vectors...
----------------------------------------------------------------------------------
  CG solver: Constructing Y initial guess
  CG solver: Iteration    1    eps =    0.000448953287
  CG solver: Iteration    2    eps =    0.000161928470
  CG solver: Iteration    3    eps =    0.000046098241
  CG solver: Iteration    4    eps =    0.000000799519
  CG solver: Iteration    5    eps =    0.000000062024
  CG solver: Iteration    6    eps =    0.000000010233
  CG solver: Iteration    7    eps =    0.000000000147
  Convergence reached in CG solver after    7 iterations
  CG solver: Calculating converged R, Z, Q2 matrix
----------------------------------------------------------------------------------

--------------------------------------------------
 Gradient Information
--------------------------------------------------
           1 st state (SSR)
     0.01067509     0.00701037     0.04124761
    -0.03328438     0.00987086    -0.05222961
    -0.00348041    -0.00270009     0.00379684
     0.00868498    -0.00750892     0.00842773
     0.01592085    -0.00436326     0.00618380
     0.00148388    -0.00230895    -0.00742637

           2 st state (SSR)
    -0.01054577    -0.01180179     0.14875088
     0.01457197     0.01731130    -0.17858031
     0.00434601     0.01552172     0.02116012
    -0.00330280    -0.01095732    -0.00309475
    -0.00587162     0.00216436    -0.00091195
     0.00080221    -0.01223826     0.01267601
--------------------------------------------------
 Coupling Information
--------------------------------------------------
 between  1 and  2 states
--------------------------------------------------
 g vector - difference gradient
     0.01062420     0.00946427    -0.05376219
    -0.02392748    -0.00381916     0.06317427
    -0.00399430    -0.00913277    -0.00868109
     0.00592475     0.00174968     0.00578302
     0.01096885    -0.00321712     0.00353831
     0.00040398     0.00495509    -0.01005233

 h vector - derivative coupling
    -0.00115940    -0.00509941     0.00063077
    -0.00019671     0.00873965     0.00045171
     0.00715822     0.00188480    -0.00009810
     0.00615610    -0.00224663    -0.00189579
    -0.00636880    -0.00415297     0.00086708
    -0.00558941     0.00087456     0.00004433

 G vector - GDV
     0.01061043     0.00940608    -0.05375164
    -0.02392818    -0.00372022     0.06317535
    -0.00391321    -0.00911091    -0.00868164
     0.00599389     0.00172420     0.00576124
     0.01089623    -0.00326381     0.00354788
     0.00034083     0.00496465    -0.01005119

 H vector - DCV - non-adiabatic coupling
    -0.00491081    -0.01998393     0.00475167
     0.00028218     0.03371195    -0.00100467
     0.02764935     0.00763056    -0.00000024
     0.02337283    -0.00869935    -0.00752751
    -0.02492157    -0.01580137     0.00317482
    -0.02147199     0.00314213     0.00060592
--------------------------------------------------


--------------------------------------------------------------------------------
DFTB+ running times                          cpu [s]             wall clock [s]
--------------------------------------------------------------------------------
SCC                                    +     0.01  ( 57.2%)      0.02  ( 55.2%)
Post-SCC processing                    +     0.01  ( 37.8%)      0.01  ( 34.5%)
--------------------------------------------------------------------------------
Missing                                +     0.00  (  5.0%)      0.00  ( 10.3%)
Total                                  =     0.02  (100.0%)      0.03  (100.0%)
--------------------------------------------------------------------------------
