    14
  Step:     0            Position(A)                                  Velocity(au)
C        -6.00805152    -0.73157519    -0.21111151     0.00011218    -0.00006435     0.00000071
C        -4.68370067    -0.76716283     0.15835299     0.00009904     0.00010568     0.00005127
H        -6.30564271     0.21303266    -0.60055550     0.00006742    -0.00003642     0.00026140
H        -6.77415189    -1.46431114     0.08157950    -0.00095447     0.00094010    -0.00061762
H        -4.19142762    -1.65471017     0.59371799     0.00048870    -0.00067366    -0.00044105
C        -3.89349472     0.40617531    -0.02236744     0.00011326     0.00009255     0.00020463
C        -2.55394969     0.49534083     0.29751875    -0.00016944    -0.00024744    -0.00015379
H        -4.43983331     1.22115810    -0.49072613    -0.00023403    -0.00019485    -0.00079529
H        -2.01379304    -0.38717418     0.64012472     0.00046547    -0.00031459     0.00052148
C        -1.83602603     1.73893474     0.05588816    -0.00016108     0.00021973     0.00001548
H        -2.41099519     2.62641471    -0.22741007    -0.00034017     0.00078890    -0.00021782
N        -0.56103833     1.78151339     0.09693807     0.00007478    -0.00012627    -0.00005790
H        -0.03769566     2.65732205     0.02602240    -0.00025482    -0.00085945    -0.00004310
H         0.10639449     1.06789802     0.32792632    -0.00020531     0.00083955     0.00072698
    14
  Step:     1            Position(A)                                  Velocity(au)
C        -6.00692111    -0.73231909    -0.21102289     0.00009460    -0.00007046     0.00001517
C        -4.68244298    -0.76605699     0.15895270     0.00013009     0.00009358     0.00005898
H        -6.30589046     0.21335898    -0.59849296    -0.00010846     0.00009633     0.00011612
H        -6.78410101    -1.45397814     0.07439624    -0.00086127     0.00093915    -0.00069125
H        -4.18657038    -1.66180013     0.58876835     0.00039123    -0.00060552    -0.00046883
C        -3.89269231     0.40706605    -0.02020476     0.00003391     0.00007167     0.00018988
C        -2.55537860     0.49286864     0.29585325    -0.00009147    -0.00020522    -0.00015024
H        -4.44206181     1.21957836    -0.49937768    -0.00016384    -0.00010307    -0.00077670
H        -2.00863891    -0.39051226     0.64585857     0.00046298    -0.00027837     0.00051899
C        -1.83846081     1.74107200     0.05607873    -0.00028236     0.00017245     0.00001910
H        -2.41434007     2.63494191    -0.22973434    -0.00025999     0.00074974    -0.00020129
N        -0.55960979     1.78031257     0.09631662     0.00018108    -0.00009407    -0.00005634
H        -0.04109842     2.64791432     0.02539223    -0.00034431    -0.00081872    -0.00007631
H         0.10372628     1.07587827     0.33610777    -0.00025955     0.00058863     0.00077873
    14
  Step:     2            Position(A)                                  Velocity(au)
C        -6.00598187    -0.73311654    -0.21077973     0.00007730    -0.00007331     0.00002861
C        -4.68085464    -0.76511566     0.15964328     0.00015901     0.00007623     0.00006755
H        -6.30801543     0.21514009    -0.59801508    -0.00027193     0.00022046    -0.00002402
H        -6.79299371    -1.44376550     0.06645701    -0.00076389     0.00091625    -0.00075501
H        -4.18286877    -1.66795701     0.58346139     0.00028050    -0.00050736    -0.00050401
C        -3.89275294     0.40774313    -0.01821354    -0.00004412     0.00005335     0.00017342
C        -2.55595082     0.49085126     0.29423202    -0.00001345    -0.00016434    -0.00014573
H        -4.44341755     1.21890321    -0.50771799    -0.00007611    -0.00002973    -0.00073884
H        -2.00366456    -0.39326406     0.65147871     0.00043467    -0.00020967     0.00050105
C        -1.84220324     1.74270744     0.05630604    -0.00039736     0.00012801     0.00002230
H        -2.41668305     2.64281674    -0.23181362    -0.00016091     0.00067336    -0.00017432
N        -0.55707695     1.77945552     0.09570559     0.00027479    -0.00006433    -0.00005592
H        -0.04522813     2.63941102     0.02435287    -0.00038389    -0.00069133    -0.00011794
H         0.10071625     1.08077545     0.34496259    -0.00027190     0.00028442     0.00084864
    14
  Step:     3            Position(A)                                  Velocity(au)
C        -6.00522998    -0.73392295    -0.21039710     0.00006044    -0.00007145     0.00004037
C        -4.67896435    -0.76438924     0.16043055     0.00018482     0.00005496     0.00007633
H        -6.31183950     0.21818205    -0.59901835    -0.00041584     0.00031936    -0.00015104
H        -6.80081258    -1.43393337     0.05787903    -0.00066722     0.00086829    -0.00080746
H        -4.18043398    -1.67289972     0.57774210     0.00016287    -0.00038833    -0.00054175
C        -3.89365762     0.40823324    -0.01641081    -0.00011999     0.00003728     0.00015559
C        -2.55567286     0.48927332     0.29266507     0.00006334    -0.00012479    -0.00014039
H        -4.44372684     1.21892802    -0.51554128     0.00002522     0.00002549    -0.00068320
H        -1.99912975    -0.39509925     0.65681999     0.00038540    -0.00011405     0.00046881
C        -1.84715383     1.74387240     0.05656663    -0.00050087     0.00008631     0.00002530
H        -2.41786030     2.64967300    -0.23354789    -0.00005112     0.00056799    -0.00013974
N        -0.55359820     1.77890522     0.09509334     0.00035296    -0.00003873    -0.00005638
H        -0.04949684     2.63279020     0.02281211    -0.00036934    -0.00047745    -0.00016744
H         0.09777800     1.08210046     0.35467349    -0.00025405    -0.00005222     0.00093208
    14
  Step:     4            Position(A)                                  Velocity(au)
C        -6.00465970    -0.73467968    -0.20989646     0.00004416    -0.00006386     0.00004998
C        -4.67681126    -0.76391331     0.16131309     0.00020667     0.00003118     0.00008466
H        -6.31711270     0.22212680    -0.60131931    -0.00053453     0.00038056    -0.00025866
H        -6.80759039    -1.42476990     0.04879233    -0.00057532     0.00079342    -0.00084772
H        -4.17930563    -1.67645247     0.57160946     0.00004494    -0.00025833    -0.00057713
C        -3.89537792     0.40855876    -0.01480961    -0.00019294     0.00002298     0.00013677
C        -2.55456513     0.48812123     0.29116070     0.00013779    -0.00008624    -0.00013438
H        -4.44286576     1.21946075    -0.52266432     0.00013520     0.00006435    -0.00061231
H        -1.99523328    -0.39575914     0.66173480     0.00032120     0.00000130     0.00042416
C        -1.85316069     1.74459556     0.05685943    -0.00058868     0.00004694     0.00002831
H        -2.41780139     2.65524250    -0.23487067     0.00006082     0.00044296    -0.00010076
N        -0.54935519     1.77860818     0.09447223     0.00041436    -0.00001844    -0.00005728
H        -0.05330823     2.62896594     0.02068979    -0.00030403    -0.00018964    -0.00022305
H         0.09515848     1.07963303     0.36535373    -0.00022333    -0.00039442     0.00102127
    14
  Step:     5            Position(A)                                  Velocity(au)
C        -6.00426386    -0.73531995    -0.20930363     0.00002854    -0.00005009     0.00005712
C        -4.67444303    -0.76370722     0.16228255     0.00022394     0.00000645     0.00009193
H        -6.32353342     0.22650752    -0.60467695    -0.00062437     0.00039697    -0.00034278
H        -6.81339891    -1.41657572     0.03933349    -0.00049106     0.00069131    -0.00087549
H        -4.17945086    -1.67855117     0.56511622    -0.00006676    -0.00012768    -0.00060533
C        -3.89787865     0.40873587    -0.01341866    -0.00026264     0.00000975     0.00011735
C        -2.55265851     0.48738657     0.28972529     0.00020922    -0.00004805    -0.00012787
H        -4.44076910     1.22033590    -0.52893678     0.00024825     0.00008975    -0.00052955
H        -1.99210292    -0.39507081     0.66609931     0.00024882     0.00012815     0.00036943
C        -1.86003228     1.74489937     0.05718587    -0.00065784     0.00000916     0.00003156
H        -2.41652967     2.65936367    -0.23575220     0.00016657     0.00030817    -0.00006082
N        -0.54453330     1.77850185     0.09384031     0.00045939    -0.00000381    -0.00005807
H        -0.05614815     2.62864140     0.01793254    -0.00019936     0.00014645    -0.00028164
H         0.09289212     1.07347178     0.37701572    -0.00019921    -0.00071288     0.00110624
    14
  Step:     6            Position(A)                                  Velocity(au)
C        -6.00403543    -0.73577550    -0.20864679     0.00001340    -0.00003030     0.00006164
C        -4.67191207    -0.76377226     0.16332428     0.00023647    -0.00001745     0.00009762
H        -6.33077192     0.23081132    -0.60881834    -0.00068379     0.00036695    -0.00040156
H        -6.81833326    -1.40964614     0.02963922    -0.00041569     0.00056331    -0.00089104
H        -4.18076623    -1.67924562     0.55836678    -0.00016598    -0.00000668    -0.00062177
C        -3.90112365     0.40877198    -0.01224232    -0.00032934    -0.00000336     0.00009772
C        -2.54998799     0.48707001     0.28836334     0.00027764    -0.00000920    -0.00012101
H        -4.43743490     1.22142421    -0.53424930     0.00035856     0.00010526    -0.00043892
H        -1.98978981    -0.39295554     0.66981678     0.00017538     0.00025771     0.00030714
C        -1.86755217     1.74479599     0.05754985    -0.00070680    -0.00002816     0.00003529
H        -2.41415725     2.66198436    -0.23620125     0.00025846     0.00017351    -0.00002346
N        -0.53930507     1.77852487     0.09320195     0.00048977     0.00000574    -0.00005819
H        -0.05766965     2.63216981     0.01452834    -0.00007310     0.00049471    -0.00033899
H         0.09080035     1.06403751     0.38955488    -0.00019909    -0.00098028     0.00117650
    14
  Step:     7            Position(A)                                  Velocity(au)
C        -6.00397062    -0.73598286    -0.20795518    -0.00000171    -0.00000517     0.00006347
C        -4.66926970    -0.76408903     0.16441825     0.00024465    -0.00003855     0.00010130
H        -6.33849273     0.23453533    -0.61346186    -0.00071320     0.00029352    -0.00043514
H        -6.82249300    -1.40425223     0.01984038    -0.00034873     0.00041248    -0.00089507
H        -4.18308203    -1.67869732     0.55151376    -0.00024696     0.00009473    -0.00062231
C        -3.90508363     0.40866233    -0.01128075    -0.00039393    -0.00001757     0.00007828
C        -2.54658466     0.48718537     0.28707787     0.00034362     0.00003162    -0.00011396
H        -4.43292498     1.22263872    -0.53853905     0.00046042     0.00011489    -0.00034476
H        -1.98826616    -0.38943302     0.67281850     0.00010805     0.00038092     0.00023988
C        -1.87549488     1.74428332     0.05795792    -0.00073538    -0.00006642     0.00003973
H        -2.41087544     2.66315943    -0.23626543     0.00032983     0.00004834     0.00000786
N        -0.53381858     1.77862744     0.09256732     0.00050796     0.00001160    -0.00005718
H        -0.05774730     2.63946405     0.01051641     0.00005418     0.00081437    -0.00039032
H         0.08853664     1.05202627     0.40275399    -0.00023486    -0.00117541     0.00122285
    14
  Step:     8            Position(A)                                  Velocity(au)
C        -6.00407291    -0.73588871    -0.20725822    -0.00001761     0.00002417     0.00006265
C        -4.66655986    -0.76461554     0.16554034     0.00024930    -0.00005485     0.00010264
H        -6.34637456     0.23723269    -0.61833792    -0.00071462     0.00018329    -0.00044540
H        -6.82596242    -1.40062235     0.01005779    -0.00028794     0.00024346    -0.00088866
H        -4.18616906    -1.67717312     0.54475251    -0.00030473     0.00016749    -0.00060344
C        -3.90974170     0.40838754    -0.01052974    -0.00045728    -0.00003414     0.00005948
C        -2.54247057     0.48776187     0.28587035     0.00040771     0.00007562    -0.00010689
H        -4.42736244     1.22393761    -0.54179156     0.00054843     0.00012274    -0.00025134
H        -1.98742601    -0.38462219     0.67506464     0.00005379     0.00048892     0.00017051
C        -1.88364010     1.74334301     0.05841898    -0.00074457    -0.00010687     0.00004504
H        -2.40694149     2.66304182    -0.23602931     0.00037548    -0.00005913     0.00003002
N        -0.52819250     1.77877855     0.09195095     0.00051665     0.00001556    -0.00005474
H        -0.05648446     2.64998572     0.00598928     0.00016341     0.00106760    -0.00043110
H         0.08566240     1.03832311     0.41630700    -0.00031111    -0.00128570     0.00123880
    14
  Step:     9            Position(A)                                  Velocity(au)
C        -6.00435596    -0.73545414    -0.20658468    -0.00003514     0.00005629     0.00005931
C        -4.66381576    -0.76528901     0.16666377     0.00025113    -0.00006492     0.00010149
H        -6.35412632     0.23854513    -0.62320575    -0.00069130     0.00004522    -0.00043550
H        -6.82879231    -1.39892602     0.00039927    -0.00022966     0.00006211    -0.00087312
H        -4.18974851    -1.67503308     0.53831245    -0.00033539     0.00020410    -0.00056267
C        -3.91508756     0.40791539    -0.00997956    -0.00051892    -0.00005378     0.00004190
C        -2.53766528     0.48883968     0.28473951     0.00046903     0.00012311    -0.00010016
H        -4.42092692     1.22532393    -0.54403751     0.00061775     0.00013280    -0.00016240
H        -1.98708945    -0.37873691     0.67654869     0.00001889     0.00057356     0.00010249
C        -1.89178382     1.74194523     0.05894317    -0.00073594    -0.00014988     0.00005120
H        -2.40266118     2.66186580    -0.23560872     0.00039185    -0.00014265     0.00004067
N        -0.52251583     1.77896787     0.09136981     0.00051832     0.00001936    -0.00005073
H        -0.05417245     2.66281992     0.00108523     0.00024070     0.00122627    -0.00045781
H         0.08173057     1.02389916     0.42985512    -0.00042537    -0.00130773     0.00122136
    14
  Step:    10            Position(A)                                  Velocity(au)
C        -6.00484162    -0.73465736    -0.20596065    -0.00005467     0.00008955     0.00005387
C        -4.66106586    -0.76603586     0.16776067     0.00025000    -0.00006846     0.00009779
H        -6.36149811     0.23822194    -0.62786539    -0.00064743    -0.00011038    -0.00040960
H        -6.83098675    -1.39926362    -0.00904346    -0.00016936    -0.00012509    -0.00085009
H        -4.19350644    -1.67270801     0.53244301    -0.00033674     0.00019969    -0.00049905
C        -3.92109398     0.40721093    -0.00961314    -0.00057609    -0.00007612     0.00002624
C        -2.53220974     0.49045522     0.28367906     0.00052446     0.00017293    -0.00009430
H        -4.41384803     1.22684281    -0.54534430     0.00066418     0.00014861    -0.00008080
H        -1.98701272    -0.37207458     0.67730691     0.00000846     0.00062812     0.00004004
C        -1.89974013     1.74006418     0.05953915    -0.00071094    -0.00019420     0.00005795
H        -2.39836906     2.65992111    -0.23513957     0.00037738    -0.00019861     0.00003865
N        -0.51685335     1.77920212     0.09084114     0.00051476     0.00002426    -0.00004524
H        -0.05121877     2.67681277    -0.00402630     0.00027907     0.00127579    -0.00046836
H         0.07635662     1.00971402     0.44302669    -0.00056963    -0.00124622     0.00117108
    14
  Step:    11            Position(A)                                  Velocity(au)
C        -6.00555205    -0.73349495    -0.20540606    -0.00007592     0.00012230     0.00004701
C        -4.65834654    -0.76678663     0.16880304     0.00024483    -0.00006632     0.00009157
H        -6.36829020     0.23613027    -0.63216651    -0.00058794    -0.00027246    -0.00037240
H        -6.83249744    -1.40166259    -0.01819801    -0.00010233    -0.00031157    -0.00082144
H        -4.19711532    -1.67066443     0.52739472    -0.00030874     0.00015319    -0.00041340
C        -3.92769057     0.40625022    -0.00940552    -0.00062465    -0.00009980     0.00001312
C        -2.52619165     0.49262285     0.28267655     0.00056965     0.00022268    -0.00008976
H        -4.40639679     1.22857500    -0.54580525     0.00068452     0.00017292    -0.00000856
H        -1.98690444    -0.36499560     0.67742470     0.00002586     0.00064810    -0.00001279
C        -1.90733699     1.73769679     0.06021098    -0.00067070    -0.00023735     0.00006478
H        -2.39440534     2.65752087    -0.23476312     0.00033265    -0.00022650     0.00002413
N        -0.51125445     1.77949860     0.09038020     0.00050694     0.00003094    -0.00003851
H        -0.04806720     2.69073034    -0.00916095     0.00027839     0.00121545    -0.00046207
H         0.06926879     0.99663568     0.45547477    -0.00073237    -0.00111214     0.00109158
    14
  Step:    12            Position(A)                                  Velocity(au)
C        -6.00650255    -0.73198184    -0.20493215    -0.00009816     0.00015287     0.00003953
C        -4.65570972    -0.76748673     0.16976390     0.00023433    -0.00006005     0.00008301
H        -6.37436040     0.23226146    -0.63601231    -0.00051832    -0.00042958    -0.00032889
H        -6.83322540    -1.40607987    -0.02701412    -0.00002433    -0.00049116    -0.00078916
H        -4.20026081    -1.66935675     0.52339920    -0.00025402     0.00006832    -0.00030840
C        -3.93475935     0.40502756    -0.00932615    -0.00066093    -0.00012322     0.00000288
C        -2.51974765     0.49532682     0.28171547     0.00060088     0.00026969    -0.00008673
H        -4.39887275     1.23062585    -0.54553147     0.00067693     0.00020727     0.00005312
H        -1.98644689    -0.35789625     0.67702713     0.00007236     0.00063172    -0.00005335
C        -1.91441291     1.73487180     0.06095639    -0.00061629    -0.00027647     0.00007110
H        -2.39109161     2.65496594    -0.23461178     0.00026045    -0.00022907    -0.00000156
N        -0.50576299     1.77987898     0.08999875     0.00049509     0.00003958    -0.00003089
H        -0.04512849     2.70340317    -0.01413491     0.00024398     0.00105626    -0.00043965
H         0.06033469     0.98538387     0.46690715    -0.00090036    -0.00092079     0.00098886
    14
  Step:    13            Position(A)                                  Velocity(au)
C        -6.00769951    -0.73015056    -0.20454117    -0.00012061     0.00017972     0.00003221
C        -4.65322007    -0.76810043     0.17061910     0.00021767    -0.00005146     0.00007247
H        -6.37962933     0.22673247    -0.63936162    -0.00044443    -0.00057040    -0.00028422
H        -6.83302968    -1.41240760    -0.03546237     0.00006782    -0.00065832    -0.00075495
H        -4.20267260    -1.66916990     0.52064796    -0.00017794    -0.00004600    -0.00018866
C        -3.94214962     0.40355455    -0.00934244    -0.00068273    -0.00014491    -0.00000442
C        -2.51304634     0.49852289     0.28077908     0.00061609     0.00031148    -0.00008508
H        -4.39158755     1.23310940    -0.54464313     0.00064113     0.00025155     0.00010394
H        -1.98532144    -0.35117562     0.67625750     0.00014675     0.00058044    -0.00008108
C        -1.92081951     1.73164853     0.06176636    -0.00054906    -0.00030890     0.00007627
H        -2.38870752     2.65250948    -0.23479718     0.00016552    -0.00021215    -0.00003602
N        -0.50042335     1.78036452     0.08970448     0.00047901     0.00005003    -0.00002276
H        -0.04272967     2.71383797    -0.01877921     0.00018477     0.00081746    -0.00040301
H         0.04957175     0.97649171     0.47710801    -0.00105999    -0.00069026     0.00087055
    14
  Step:    14            Position(A)                                  Velocity(au)
C        -6.00914118    -0.72805007    -0.20422740    -0.00014258     0.00020143     0.00002573
C        -4.65094767    -0.76861244     0.17134942     0.00019465    -0.00004244     0.00006049
H        -6.38408311     0.21978280    -0.64223020    -0.00037226    -0.00068411    -0.00024359
H        -6.83174160    -1.42048187    -0.04353016     0.00017586    -0.00080845    -0.00072016
H        -4.20415368    -1.67036318     0.51927192    -0.00008818    -0.00017636    -0.00006042
C        -3.94969541     0.40185743    -0.00942295    -0.00068923    -0.00016361    -0.00000902
C        -2.50626946     0.50214111     0.27985409     0.00061472     0.00034577    -0.00008437
H        -4.38484673     1.23612895    -0.54325758     0.00057847     0.00030386     0.00014477
H        -1.98323653    -0.34519798     0.67525331     0.00024521     0.00049931    -0.00009755
C        -1.92642460     1.72811410     0.06262505    -0.00047057    -0.00033221     0.00007970
H        -2.38747057     2.65032465    -0.23539986     0.00005416    -0.00018408    -0.00007608
N        -0.49528382     1.78097339     0.08950086     0.00045825     0.00006191    -0.00001450
H        -0.04108620     2.72128660    -0.02295145     0.00011154     0.00052323    -0.00035495
H         0.03714545     0.97028309     0.48595206    -0.00119819    -0.00044015     0.00074530
    14
  Step:    15            Position(A)                                  Velocity(au)
C        -6.01081864    -0.72574388    -0.20397824    -0.00016342     0.00021677     0.00002066
C        -4.64896163    -0.76902887     0.17194241     0.00016557    -0.00003494     0.00004772
H        -6.38777322     0.21176626    -0.64469063    -0.00030765    -0.00076087    -0.00021207
H        -6.82918240    -1.43009404    -0.05121718     0.00029985    -0.00093807    -0.00068571
H        -4.20460172    -1.67302820     0.51932614     0.00000619    -0.00030659     0.00006908
C        -3.95722788     0.39997521    -0.00953977    -0.00068057    -0.00017823    -0.00001130
C        -2.49959819     0.50608717     0.27893338     0.00059725     0.00037036    -0.00008393
H        -4.37893244     1.23975698    -0.54147592     0.00049175     0.00036056     0.00017767
H        -1.97995692    -0.34025236     0.67412348     0.00036148     0.00039678    -0.00010619
C        -1.93111417     1.72438072     0.06350988    -0.00038248    -0.00034426     0.00008077
H        -2.38752268     2.64848240    -0.23646164    -0.00006648    -0.00015451    -0.00011806
N        -0.49039816     1.78171897     0.08938717     0.00043228     0.00007476    -0.00000651
H        -0.04028949     2.72528452    -0.02654433     0.00003573     0.00020023    -0.00029894
H         0.02335894     0.96686263     0.49341283    -0.00130315    -0.00019050     0.00062231
    14
  Step:    16            Position(A)                                  Velocity(au)
C        -6.01271639    -0.72330771    -0.20377539    -0.00018258     0.00022479     0.00001746
C        -4.64732540    -0.76937671     0.17239333     0.00013108    -0.00003072     0.00003486
H        -6.39081358     0.20313737    -0.64686970    -0.00025595    -0.00079256    -0.00019428
H        -6.82518191    -1.44100384    -0.05853145     0.00043817    -0.00104490    -0.00065224
H        -4.20401816    -1.67707038     0.52078312     0.00009591    -0.00042009     0.00019245
C        -3.96458416     0.39795828    -0.00967020    -0.00065757    -0.00018780    -0.00001179
C        -2.49320343     0.51024350     0.27801791     0.00056493     0.00038328    -0.00008302
H        -4.37408878     1.24401698    -0.53937064     0.00038493     0.00041658     0.00020566
H        -1.97532854    -0.33651768     0.67293011     0.00048739     0.00028391    -0.00011180
C        -1.93479209     1.72058270     0.06439196    -0.00028638    -0.00034326     0.00007896
H        -2.38892484     2.64694440    -0.23798259    -0.00018911    -0.00013301    -0.00015823
N        -0.48582689     1.78260901     0.08935847     0.00040044     0.00008803     0.00000085
H        -0.04030452     2.72566711    -0.02949129    -0.00003122    -0.00012392    -0.00023887
H         0.00863656     0.96611557     0.49956630    -0.00136478     0.00003911     0.00051088
    14
  Step:    17            Position(A)                                  Velocity(au)
C        -6.01481301    -0.72082611    -0.20359621    -0.00019955     0.00022488     0.00001645
C        -4.64609394    -0.76970092     0.17270505     0.00009202    -0.00003119     0.00002257
H        -6.39337262     0.19442752    -0.64894079    -0.00022148    -0.00077385    -0.00019378
H        -6.81959649    -1.45295329    -0.06548623     0.00058771    -0.00112798    -0.00062012
H        -4.20250345    -1.68221858     0.52353639     0.00017271    -0.00050237     0.00030308
C        -3.97161338     0.39586662    -0.00979772    -0.00062151    -0.00019158    -0.00001106
C        -2.48723920     0.51447218     0.27711720     0.00051951     0.00038291    -0.00008087
H        -4.37051132     1.24887044    -0.53697676     0.00026270     0.00046601     0.00023230
H        -1.96929437    -0.33404132     0.67167767     0.00061388     0.00017285    -0.00011969
C        -1.93737938     1.71687127     0.06523723    -0.00018381    -0.00032799     0.00007388
H        -2.39165980     2.64557256    -0.23992320    -0.00030701    -0.00012760    -0.00019330
N        -0.48163768     1.78364480     0.08940587     0.00036212     0.00010106     0.00000725
H        -0.04097253     2.72257350    -0.03176997    -0.00007826    -0.00042172    -0.00017885
H        -0.00649826     0.96771825     0.50458929    -0.00137535     0.00023073     0.00041981
    14
  Step:    18            Position(A)                                  Velocity(au)
C        -6.01708198    -0.71838801    -0.20341546    -0.00021393     0.00021688     0.00001777
C        -4.64531227    -0.77005913     0.17288704     0.00004932    -0.00003720     0.00001136
H        -6.39565890     0.18620796    -0.65110895    -0.00020697    -0.00070331    -0.00021247
H        -6.81232454    -1.46568058    -0.07209783     0.00074407    -0.00118753    -0.00058958
H        -4.20023988    -1.68806068     0.52741359     0.00023024    -0.00054294     0.00039582
C        -3.97818090     0.39376711    -0.00991211    -0.00057399    -0.00018909    -0.00000964
C        -2.48183806     0.51862032     0.27624876     0.00046305     0.00036823    -0.00007684
H        -4.36834161     1.25421184    -0.53428860     0.00013003     0.00050292     0.00026120
H        -1.96189874    -0.33273616     0.67031177     0.00073203     0.00007517    -0.00013485
C        -1.93881334     1.71340732     0.06600814    -0.00007621    -0.00029798     0.00006530
H        -2.39564124     2.64415293    -0.24221130    -0.00041447    -0.00014369    -0.00022074
N        -0.47790482     1.78481995     0.08951703     0.00031677     0.00011309     0.00001241
H        -0.04201668     2.71644121    -0.03340396    -0.00009509    -0.00066677    -0.00012306
H        -0.02145181     0.97116322     0.50875045    -0.00133009     0.00036952     0.00035663
    14
  Step:    19            Position(A)                                  Velocity(au)
C        -6.01949320    -0.71608135    -0.20320747    -0.00022546     0.00020117     0.00002134
C        -4.64501500    -0.77051471     0.17295360     0.00000390    -0.00004893     0.00000159
H        -6.39790055     0.17904122    -0.65358908    -0.00021305    -0.00058437    -0.00024997
H        -6.80331854    -1.47893284    -0.07838435     0.00090195    -0.00122491    -0.00056074
H        -4.19746651    -1.69409652     0.53219579     0.00026459    -0.00053647     0.00046743
C        -3.98417052     0.39172993    -0.01000869    -0.00051677    -0.00018022    -0.00000801
C        -2.47710912     0.52252797     0.27543608     0.00039776     0.00033908    -0.00007052
H        -4.36766671     1.25987287    -0.53126245    -0.00000826     0.00052216     0.00029546
H        -1.95327984    -0.33239675     0.66872750     0.00083404     0.00000023    -0.00016119
C        -1.93904663     1.71035246     0.06666589     0.00003503    -0.00025363     0.00005324
H        -2.40072718     2.64242897    -0.24475225    -0.00050709    -0.00018353    -0.00023904
N        -0.47470778     1.78611884     0.08967728     0.00026405     0.00012320     0.00001620
H        -0.04305286     2.70798662    -0.03446219    -0.00007279    -0.00083557    -0.00007545
H        -0.03559659     0.97580218     0.51239128    -0.00122796     0.00044565     0.00032655
    14
  Step:    20            Position(A)                                  Velocity(au)
C        -6.02201443    -0.71398704    -0.20294860    -0.00023406     0.00017866     0.00002685
C        -4.64522698    -0.77112952     0.17292187    -0.00004335    -0.00006594    -0.00000657
H        -6.40031974     0.17342365    -0.65657747    -0.00023786    -0.00042589    -0.00030309
H        -6.79259266    -1.49247780    -0.08436519     0.00105552    -0.00124242    -0.00053373
H        -4.19445149    -1.69979704     0.53763944     0.00027422    -0.00048271     0.00051655
C        -3.98948620     0.38982446    -0.01008737    -0.00045169    -0.00016525    -0.00000650
C        -2.47313621     0.52603838     0.27470594     0.00032596     0.00029626    -0.00006176
H        -4.36852239     1.26563512    -0.52782488    -0.00014774     0.00052001     0.00033725
H        -1.94365248    -0.33273110     0.66678549     0.00091394    -0.00004593    -0.00020094
C        -1.93804694     1.70785862     0.06717287     0.00014851    -0.00019631     0.00003791
H        -2.40673480     2.64013782    -0.24744082    -0.00058178    -0.00024617    -0.00024775
N        -0.47212817     1.78751514     0.08987147     0.00020402     0.00013038     0.00001869