 Fermi distribution function

Calculation with static geometry


********************************************************************************
 iSCC Total electronic   Diff electronic      SCC error    
   10   -0.54011519E+01   -0.10835777E-12    0.77917568E-06
********************************************************************************

 Total charge:     1.00000000

 Atomic gross charges (e)
 Atom           Charge
    1       0.28614484
    2      -0.17743041
    3       0.14494650
    4       0.30855588
    5       0.27934562
    6       0.15843757

Nr. of electrons (up):     12.00000000
Atom populations (up)
 Atom       Population
    1       3.71385516
    2       5.17743041
    3       0.85505350
    4       0.69144412
    5       0.72065438
    6       0.84156243

l-shell populations (up)
 Atom Sh.   l       Population
    1   1   0       1.29040230
    1   2   1       2.42345286
    2   1   0       1.40627745
    2   2   1       3.77115295
    3   1   0       0.85505350
    4   1   0       0.69144412
    5   1   0       0.72065438
    6   1   0       0.84156243

Orbital populations (up)
 Atom Sh.   l   m       Population  Label
    1   1   0   0       1.29040230  s
    1   2   1  -1       0.56333448  p_y
    1   2   1   0       0.89860156  p_z
    1   2   1   1       0.96151682  p_x
    2   1   0   0       1.40627745  s
    2   2   1  -1       1.35494123  p_y
    2   2   1   0       1.08626920  p_z
    2   2   1   1       1.32994251  p_x
    3   1   0   0       0.85505350  s
    4   1   0   0       0.69144412  s
    5   1   0   0       0.72065438  s
    6   1   0   0       0.84156243  s

Fermi level:                        -0.4836572066 H          -13.1610 eV
Band energy:                        -8.8834284126 H         -241.7304 eV
TS:                                  0.0000000000 H            0.0000 eV
Band free energy (E-TS):            -8.8834284126 H         -241.7304 eV
Extrapolated E(0K):                 -8.8834284126 H         -241.7304 eV
Input / Output electrons (q):     12.0000000000     12.0000000000

Energy H0:                          -5.5345469787 H         -150.6027 eV
Energy SCC:                          0.1333950370 H            3.6299 eV
Total Electronic energy:            -5.4011519417 H         -146.9728 eV
Repulsive energy:                    0.2074785020 H            5.6458 eV
Total energy:                       -5.1936734397 H         -141.3270 eV
Extrapolated to 0:                  -5.1936734397 H         -141.3270 eV
Total Mermin free energy:           -5.1936734397 H         -141.3270 eV
Force related energy:               -5.1936734397 H         -141.3270 eV

SCC converged

Excitation Energy:                   0.0912815943 H            2.4839 eV

Total Forces
    1     -0.011410497641      0.009492032771     -0.013859970471
    2      0.015632235603      0.009876003789      0.011557485483
    3     -0.002794089348     -0.016183028434      0.004132476106
    4     -0.013336740405      0.004156028416     -0.001299873629
    5      0.004434445879     -0.015649322490     -0.000511237803
    6      0.007474645912      0.008308285948     -0.000018879687

Maximal derivative component:        0.161830E-01 au


