|===============================================================================
|
|  DFTB+ release 20.1
|
|  Copyright (C) 2006 - 2020  DFTB+ developers group
|
|===============================================================================
|
|  When publishing results obtained with DFTB+, please cite the following
|  reference:
|
|  * DFTB+, a software package for efficient approximate density functional
|    theory based atomistic simulations, J. Chem. Phys. 152, 124101 (2020).
|    [doi: 10.1063/1.5143190]
|
|  You should also cite additional publications crediting the parametrization
|  data you use. Please consult the documentation of the SK-files for the
|  references.
|
|===============================================================================

Reading input file 'dftb_in.hsd'
Parser version: 8

--------------------------------------------------------------------------------
Reading SK-files:
Done.


Processed input in HSD format written to 'dftb_pin.hsd'

Starting initialization...
--------------------------------------------------------------------------------
WARNING!
-> Excited state forces are not implemented yet for fractional occupations, kT=  0.3158E-02K
OpenMP threads:              1
Chosen random seed:          508851684
Mode:                        Static calculation
Self consistent charges:     Yes
SCC-tolerance:                 0.100000E-05
Max. scc iterations:                    100
Shell resolved Hubbard:      No
Spin polarisation:           No
Nr. of up electrons:             6.000000
Nr. of down electrons:           6.000000
Periodic boundaries:         No
Electronic solver:           Relatively robust
Mixer:                       Broyden mixer
Mixing parameter:                  0.200000
Maximal SCC-cycles:                     100
Nr. of chrg. vec. in memory:              0
Electronic temperature:        0.100000E-07 H      0.272114E-06 eV
Initial charges:             Set automatically (system chrg:   0.100E+01)
Included shells:             C:  s, p
                             N:  s, p
                             H:  s
Extra options:
                             Mulliken analysis
                             Force calculation
Force type                   original
                             Eigenvector printing

--------------------------------------------------------------------------------

***  Geometry step: 0

 iSCC Total electronic   Diff electronic      SCC error    
    1   -0.53900930E+01    0.00000000E+00    0.85498024E+00
    2   -0.53962198E+01   -0.61267678E-02    0.58818364E+00
    3   -0.54006868E+01   -0.44669912E-02    0.91897514E-01
    4   -0.54001917E+01    0.49502555E-03    0.15875029E+00
    5   -0.54011389E+01   -0.94715416E-03    0.21670267E-01
    6   -0.54011489E+01   -0.10037543E-04    0.10608796E-01
    7   -0.54011519E+01   -0.30168142E-05    0.90257066E-04
    8   -0.54011519E+01    0.31979752E-10    0.96736518E-04
    9   -0.54011519E+01   -0.40249049E-09    0.17872252E-05
   10   -0.54011519E+01   -0.10835777E-12    0.77917568E-06
>> Charges saved for restart in charges.bin

Total Energy:                       -5.1023918454 H         -138.8431 eV
Extrapolated to 0:                  -5.1936734397 H         -141.3270 eV
Total Mermin free energy:           -5.1023918454 H         -138.8431 eV
Force related energy:               -5.1936734397 H         -141.3270 eV

--------------------------------------------------------------------------------
DFTB+ running times                          cpu [s]             wall clock [s]
--------------------------------------------------------------------------------
SCC                                    +     0.01  ( 59.3%)      0.03  ( 64.0%)
Post-SCC processing                    +     0.00  ( 31.8%)      0.01  ( 26.0%)
--------------------------------------------------------------------------------
Missing                                +     0.00  (  8.9%)      0.00  ( 10.0%)
Total                                  =     0.01  (100.0%)      0.05  (100.0%)
--------------------------------------------------------------------------------
