    14
  Step:     0            Position(A)                                  Velocity(au)
C        -6.03619326    -0.82455476     0.02293448     0.00002583    -0.00007048    -0.00013896
C        -4.71181967    -0.72707107     0.07405534    -0.00005848     0.00012962     0.00010314
H        -6.64560478    -0.00427664    -0.38471930    -0.00000814     0.00040386     0.00051511
H        -6.64999945    -1.72742579     0.28544383    -0.00042838    -0.00010449     0.00061065
H        -4.02842446    -1.51760763     0.44985101    -0.00028734     0.00038473    -0.00089835
C        -3.91272920     0.49198631    -0.19225177    -0.00017053    -0.00004415    -0.00003362
C        -2.55304710     0.51866628     0.12625931     0.00022861    -0.00021278     0.00014394
H        -4.47763414     1.33124230    -0.67611433     0.00095862     0.00030924     0.00026007
H        -2.10586264    -0.40337864     0.58601419     0.00001372    -0.00009495    -0.00053724
C        -1.81404816     1.73840260     0.01419855    -0.00031029     0.00012660    -0.00021323
H        -2.28690589     2.65879310    -0.35985198    -0.00101462    -0.00107684     0.00040222
N        -0.50410718     1.76188756     0.26962891     0.00019272     0.00007127    -0.00005010
H        -0.01747061     2.67764144     0.33192523     0.00045780     0.00069115     0.00054098
H        -0.01941903     0.87344788     0.49581028     0.00102468    -0.00065491     0.00145586
    14
  Step:     1            Position(A)                                  Velocity(au)
C        -6.03638017    -0.82538936     0.02134796    -0.00006010    -0.00008201    -0.00015037
C        -4.71186856    -0.72551688     0.07524995     0.00004734     0.00015556     0.00011390
H        -6.64545382     0.00003857    -0.37881660     0.00003636     0.00038066     0.00056370
H        -6.65361141    -1.72779594     0.29205311    -0.00022537     0.00004390     0.00059124
H        -4.03259061    -1.51359661     0.43988243    -0.00045868     0.00033130    -0.00091213
C        -3.91508355     0.49135443    -0.19272760    -0.00025724    -0.00007193    -0.00005216
C        -2.55030625     0.51643360     0.12791148     0.00027083    -0.00019358     0.00015676
H        -4.46611369     1.33416386    -0.67262224     0.00113290     0.00023383     0.00037063
H        -2.10591747    -0.40332388     0.57951008    -0.00001467     0.00009145    -0.00064357
C        -1.81763101     1.73967290     0.01182187    -0.00034015     0.00010128    -0.00021888
H        -2.29781033     2.64659390    -0.35512555    -0.00098708    -0.00111953     0.00044848
N        -0.50178272     1.76270666     0.26912928     0.00023214     0.00007732    -0.00004076
H        -0.01271161     2.68382526     0.33774298     0.00039801     0.00041761     0.00052025
H        -0.00851558     0.86756969     0.51165086     0.00093609    -0.00037321     0.00142401
    14
  Step:     2            Position(A)                                  Velocity(au)
C        -6.03750801    -0.82634892     0.01964493    -0.00014411    -0.00009281    -0.00016025
C        -4.71078404    -0.72366797     0.07654718     0.00014674     0.00018352     0.00012171
H        -6.64480942     0.00405096    -0.37238726     0.00007965     0.00035078     0.00061019
H        -6.65492995    -1.72646537     0.29837836    -0.00001479     0.00019935     0.00056053
H        -4.03845888    -1.51035978     0.42989638    -0.00059440     0.00024124    -0.00090045
C        -3.91835690     0.49041264    -0.19339281    -0.00033805    -0.00010115    -0.00006795
C        -2.54712218     0.51443131     0.12968878     0.00030960    -0.00017005     0.00016658
H        -4.45284976     1.33635769    -0.66800620     0.00127290     0.00018109     0.00046236
H        -2.10618363    -0.40137790     0.57193477    -0.00002187     0.00024454    -0.00073040
C        -1.82148951     1.74061828     0.00941020    -0.00036031     0.00006696    -0.00021949
H        -2.30850021     2.63430126    -0.35004073    -0.00097752    -0.00109197     0.00046696
N        -0.49902877     1.76357919     0.26873717     0.00026985     0.00008124    -0.00003076
H        -0.00876342     2.68677744     0.34330663     0.00031644     0.00011423     0.00049510
H         0.00105968     0.86528321     0.52696314     0.00079090    -0.00001535     0.00136253
    14
  Step:     3            Position(A)                                  Velocity(au)
C        -6.03953292    -0.82741967     0.01784214    -0.00022227    -0.00010184    -0.00016863
C        -4.70865841    -0.72150204     0.07791269     0.00023609     0.00021348     0.00012627
H        -6.64371135     0.00771250    -0.36546750     0.00011695     0.00031883     0.00065226
H        -6.65393493    -1.72343472     0.30431580     0.00019190     0.00034770     0.00052240
H        -4.04559414    -1.50831896     0.42018344    -0.00068769     0.00011221    -0.00086194
C        -3.92247897     0.48914153    -0.19421409    -0.00041217    -0.00013249    -0.00008047
C        -2.54353321     0.51271332     0.13155569     0.00034500    -0.00014105     0.00017298
H        -4.43826664     1.33812562    -0.66250718     0.00137051     0.00016026     0.00052939
H        -2.10639583    -0.39797421     0.56353116    -0.00000216     0.00035234    -0.00079287
C        -1.82551338     1.74113771     0.00702009    -0.00037032     0.00002345    -0.00021495
H        -2.31919537     2.62270494    -0.34491000    -0.00098851    -0.00099362     0.00045741
N        -0.49587933     1.76448385     0.26845635     0.00030317     0.00008338    -0.00002076
H        -0.00578887     2.68632419     0.34857419     0.00022693    -0.00019098     0.00046690
H         0.00878696     0.86723385     0.54145886     0.00060763     0.00038425     0.00127872
    14
  Step:     4            Position(A)                                  Velocity(au)
C        -6.04237053    -0.82857697     0.01595576    -0.00029126    -0.00010817    -0.00017561
C        -4.70561913    -0.71899779     0.07930962     0.00031275     0.00024522     0.00012744
H        -6.64225091     0.01102594    -0.35811791     0.00014379     0.00028928     0.00068778
H        -6.65073179    -1.71885873     0.30980694     0.00038333     0.00047502     0.00048130
H        -4.05350344    -1.50790504     0.41103973    -0.00073531    -0.00005459    -0.00079718
C        -3.92737398     0.48751421    -0.19515318    -0.00047929    -0.00016654    -0.00008934
C        -2.53957455     0.51134565     0.13347305     0.00037737    -0.00010565     0.00017573
H        -4.42286727     1.33986359    -0.65642470     0.00141992     0.00017853     0.00056740
H        -2.10623093    -0.39366978     0.55458915     0.00004891     0.00040507    -0.00082758
C        -1.82959106     1.74113136     0.00470775    -0.00037039    -0.00002867    -0.00020547
H        -2.33012576     2.61256384    -0.34003410    -0.00101870    -0.00083146     0.00042251
N        -0.49239633     1.76540330     0.26828294     0.00032970     0.00008410    -0.00001150
H        -0.00379897     2.68259942     0.35352086     0.00014315    -0.00047024     0.00043736
H         0.01435286     0.87368949     0.55493759     0.00040522     0.00079147     0.00118121
    14
  Step:     5            Position(A)                                  Velocity(au)
C        -6.04590484    -0.82978605     0.01400032    -0.00034870    -0.00011090    -0.00018139
C        -4.70181632    -0.71613731     0.08070074     0.00037530     0.00027824     0.00012532
H        -6.64056570     0.01404108    -0.35042104     0.00015631     0.00026609     0.00071490
H        -6.64554881    -1.71304283     0.31484505     0.00054861     0.00056788     0.00044219
H        -4.06168045    -1.50951326     0.40274367    -0.00073849    -0.00025332    -0.00070900
C        -3.93296425     0.48549823    -0.19616864    -0.00053910    -0.00020357    -0.00009437
C        -2.53527749     0.51040192     0.13540002     0.00040679    -0.00006363     0.00017473
H        -4.40720316     1.34203131    -0.65009430     0.00141845     0.00023951     0.00057459
H        -2.10532574    -0.38911256     0.54542637     0.00013376     0.00039685    -0.00083314
C        -1.83361641     1.74051047     0.00252498    -0.00036121    -0.00008781    -0.00019165
H        -2.34148135     2.60451523    -0.33566674    -0.00106204    -0.00062059     0.00036810
N        -0.48866648     1.76632380     0.26820485     0.00034732     0.00008376    -0.00000373
H        -0.00265724     2.67603674     0.35814236     0.00007806    -0.00069713     0.00040845
H         0.01765189     0.88454870     0.56730000     0.00020268     0.00117293     0.00107986
    14
  Step:     6            Position(A)                                  Velocity(au)
C        -6.04999891    -0.83100301     0.01198756    -0.00039312    -0.00010924    -0.00018626
C        -4.69740882    -0.71291083     0.08205130     0.00042343     0.00031141     0.00012029
H        -6.63883130     0.01684713    -0.34247820     0.00015156     0.00025233     0.00073208
H        -6.63872987    -1.70643519     0.31948066     0.00067778     0.00061393     0.00041048
H        -4.06965933    -1.51344698     0.39552891    -0.00070338    -0.00047282    -0.00060270
C        -3.93916787     0.48306079    -0.19721773    -0.00059087    -0.00024319    -0.00009552
C        -2.53067525     0.50995351     0.13729570     0.00043257    -0.00001584     0.00017008
H        -4.39183590     1.34510341    -0.64385451     0.00136711     0.00034166     0.00055249
H        -2.10330461    -0.38498787     0.53636254     0.00025186     0.00032755    -0.00081075
C        -1.83749320     1.73921044     0.00051514    -0.00034373    -0.00015111    -0.00017440
H        -2.35335984     2.59898733    -0.33198124    -0.00110819    -0.00038298     0.00030254
N        -0.48479796     1.76723563     0.26820132     0.00035422     0.00008278     0.00000170
H        -0.00209119     2.66734829     0.36245645     0.00004307    -0.00084816     0.00038213
H         0.01878687     0.89934954     0.57856163     0.00001901     0.00149617     0.00098586
    14
  Step:     7            Position(A)                                  Velocity(au)
C        -6.05450518    -0.83217593     0.00992550    -0.00042396    -0.00010257    -0.00019059
C        -4.69255297    -0.70932453     0.08333233     0.00045771     0.00034294     0.00011300
H        -6.63724993     0.01956134    -0.33440532     0.00012766     0.00024996     0.00073837
H        -6.63072098    -1.69961198     0.32382499     0.00076267     0.00060287     0.00039142
H        -4.07706828    -1.51985715     0.38955840    -0.00064047    -0.00069690    -0.00048550
C        -3.94589066     0.48017791    -0.19825834    -0.00063320    -0.00028411    -0.00009299
C        -2.52581429     0.51005531     0.13912074     0.00045314     0.00003555     0.00016198
H        -4.37729497     1.34950587    -0.63800760     0.00127075     0.00047710     0.00050627
H        -2.09981579    -0.38194668     0.52768968     0.00039905     0.00020433    -0.00076448
C        -1.84113611     1.73720472    -0.00129028    -0.00031888    -0.00021469    -0.00015487
H        -2.36572520     2.59613690    -0.32904801    -0.00114414    -0.00014436     0.00023548
N        -0.48091732     1.76813486     0.26824212     0.00034889     0.00008187     0.00000392
H        -0.00171500     2.65748156     0.36650223     0.00004672    -0.00090520     0.00036018
H         0.01806778     0.91728020     0.58886763    -0.00012733     0.00173030     0.00091158
    14
  Step:     8            Position(A)                                  Velocity(au)
C        -6.05927385    -0.83324693     0.00781812    -0.00044133    -0.00009049    -0.00019471
C        -4.68739543    -0.70540837     0.08452343     0.00047916     0.00037039     0.00010431
H        -6.63603855     0.02231545    -0.32632492     0.00008393     0.00025954     0.00073354
H        -6.62204501    -1.69324629     0.32804371     0.00079816     0.00052831     0.00038928
H        -4.08367087    -1.52869306     0.38490775    -0.00056283    -0.00090600    -0.00036553
C        -3.95302033     0.47684525    -0.19925209    -0.00066446    -0.00032411    -0.00008729
C        -2.52076195     0.51073121     0.14083939     0.00046669     0.00008730     0.00015093
H        -4.36403580     1.35554084    -0.63277894     0.00113755     0.00063142     0.00044440
H        -2.09457457    -0.38051778     0.51963798     0.00056733     0.00004207    -0.00070137
C        -1.84446937     1.73451374    -0.00287283    -0.00028757    -0.00027427    -0.00013423
H        -2.37839018     2.59582926    -0.32682965    -0.00115655     0.00006992     0.00017607
N        -0.47716526     1.76902666     0.26828702     0.00033044     0.00008202     0.00000204
H        -0.00106911     2.64754541     0.37033609     0.00009305    -0.00085865     0.00034379
H         0.01600127     0.93720312     0.59850415    -0.00021974     0.00184827     0.00086979
    14
  Step:     9            Position(A)                                  Velocity(au)
C        -6.06416021    -0.83415558     0.00566587    -0.00044602    -0.00007300    -0.00019888
C        -4.68207051    -0.70122153     0.08561421     0.00048887     0.00039105     0.00009512
H        -6.63541373     0.02523925    -0.31835764     0.00002111     0.00028013     0.00071822
H        -6.61325970    -1.68805429     0.33234114     0.00078354     0.00038971     0.00040631
H        -4.08938118    -1.53967762     0.38156178    -0.00048365    -0.00107988    -0.00025060
C        -3.96042710     0.47308730    -0.20016787    -0.00068335    -0.00036031    -0.00007921
C        -2.51560454     0.51196518     0.14242257     0.00047189     0.00013565     0.00013764
H        -4.35240889     1.36331943    -0.62828555     0.00097771     0.00078527     0.00037739
H        -2.08740438    -0.38102639     0.51234591     0.00074552    -0.00013811    -0.00063060
C        -1.84742727     1.73120458    -0.00422685    -0.00025074    -0.00032594    -0.00011357
H        -2.39102698     2.59766658    -0.32519608    -0.00113425     0.00023890     0.00013145
N        -0.47368841     1.76992920     0.26828682     0.00029885     0.00008453    -0.00000458
H         0.00032074     2.63869696     0.37402320     0.00018001    -0.00071067     0.00033309
H         0.01326045     0.95771462     0.60789605    -0.00024591     0.00183105     0.00087190
    14
  Step:    10            Position(A)                                  Velocity(au)
C        -6.06903144    -0.83484396     0.00346714    -0.00043945    -0.00005064    -0.00020318
C        -4.67670037    -0.69685337     0.08660429     0.00048790     0.00040230     0.00008629
H        -6.63557680     0.02844377    -0.31061259    -0.00005877     0.00030925     0.00069376
H        -6.60490365    -1.68472070     0.33693247     0.00072345     0.00019428     0.00044179
H        -4.09425170    -1.55231750     0.37942535    -0.00041398    -0.00120085    -0.00014707
C        -3.96796994     0.46896270    -0.20098498    -0.00068910    -0.00038955    -0.00006978
C        -2.51043844     0.51369878     0.14385050     0.00046822     0.00017683     0.00012302
H        -4.34264648     1.37272016    -0.62452282     0.00080174     0.00091727     0.00031601
H        -2.07826484    -0.38353924     0.50584230     0.00092077    -0.00031197    -0.00056218
C        -1.84995478     1.72738308    -0.00535734    -0.00020931    -0.00036669    -0.00009372
H        -2.40320412     2.60105573    -0.32395399    -0.00107017     0.00034880     0.00010576
N        -0.47062732     1.77087594     0.26818686     0.00025537     0.00009071    -0.00001616
H         0.00286894     2.63199806     0.37762301     0.00029844    -0.00047704     0.00032670
H         0.01062143     0.97726074     0.61757869    -0.00020132     0.00167351     0.00092493
    14
  Step:    11            Position(A)                                  Velocity(au)
C        -6.07377398    -0.83526351     0.00122082    -0.00042361    -0.00002458    -0.00020742
C        -4.67139677    -0.69242039     0.08750203     0.00047700     0.00040191     0.00007856
H        -6.63669935     0.03200475    -0.30318027    -0.00015241     0.00034307     0.00066216
H        -6.59743276    -1.68380397     0.34200609     0.00062805    -0.00004227     0.00049134
H        -4.09843784    -1.56594850     0.37834423    -0.00036107    -0.00125647    -0.00005916
C        -3.97550243     0.46456518    -0.20169439    -0.00068141    -0.00040876    -0.00006003
C        -2.50536124     0.51583376     0.14511383     0.00045586     0.00020753     0.00010799
H        -4.33486919     1.38338649    -0.62137228     0.00061886     0.00100769     0.00026945
H        -2.06726082    -0.38785127     0.50004718     0.00108037    -0.00045616    -0.00050514
C        -1.85200641     1.72318249    -0.00627708    -0.00016406    -0.00039453    -0.00007525
H        -2.41443893     2.60529733    -0.32288232    -0.00096208     0.00039391     0.00010009
N        -0.46810181     1.77191358     0.26793336     0.00020256     0.00010141    -0.00003220
H         0.00684977     2.62826072     0.38117050     0.00043250    -0.00018650     0.00032157
H         0.00885621     0.99432577     0.62813055    -0.00009276     0.00139008     0.00102798
    14
  Step:    12            Position(A)                                  Velocity(au)
C        -6.07829881    -0.83538172    -0.00107061    -0.00040087     0.00000350    -0.00021114
C        -4.66626500    -0.68806071     0.08832289     0.00045660     0.00038825     0.00007246
H        -6.63891105     0.03594906    -0.29612667    -0.00025558     0.00037670     0.00062575
H        -6.59116384    -1.68564543     0.34768149     0.00051169    -0.00029708     0.00054709
H        -4.10215083    -1.57980520     0.37813101    -0.00032796    -0.00124096     0.00001121
C        -3.98287698     0.46002035    -0.20229832    -0.00066029    -0.00041536    -0.00005091
C        -2.50046553     0.51823889     0.14621290     0.00043542     0.00022519     0.00009332
H        -4.32910772     1.39476526    -0.61862819     0.00043596     0.00104171     0.00024394
H        -2.05462966    -0.39351854     0.49479135     0.00121359    -0.00055201    -0.00046617
C        -1.85354387     1.71875209    -0.00700353    -0.00011553    -0.00040843    -0.00005847
H        -2.42425142     2.60967334    -0.32176430    -0.00081221     0.00037571     0.00011297
N        -0.46619591     1.77309447     0.26748237     0.00014427     0.00011662    -0.00005138
H         0.01233067     2.62791810     0.38465806     0.00056176     0.00012340     0.00031330
H         0.00859223     1.00767134     0.64006764     0.00006013     0.00101668     0.00116968
    14
  Step:    13            Position(A)                                  Velocity(au)
C        -6.08254374    -0.83518702    -0.00339826    -0.00037364     0.00003161    -0.00021368
C        -4.66140769    -0.68392666     0.08908724     0.00042685     0.00036039     0.00006835
H        -6.64229066     0.04024585    -0.28949073    -0.00036342     0.00040475     0.00058700
H        -6.58623854    -1.69030327     0.35397462     0.00039060    -0.00054332     0.00059877
H        -4.10561266    -1.59309698     0.37858947    -0.00031406    -0.00115515     0.00006414
C        -3.98994760     0.45547840    -0.20280810    -0.00062603    -0.00040756    -0.00004309
C        -2.49583562     0.52076016     0.14715548     0.00040771     0.00022828     0.00007958
H        -4.32533179     1.40617591    -0.61603566     0.00025738     0.00101144     0.00024216
H        -2.04071121    -0.39992764     0.48984875     0.00131286    -0.00058807    -0.00044882
C        -1.85453390     1.71424725    -0.00755628    -0.00006414    -0.00040827    -0.00004350
H        -2.43220750     2.61351675    -0.32041078    -0.00062621     0.00030123     0.00014118
N        -0.46494566     1.77446497     0.26680942     0.00008511     0.00013529    -0.00007157
H         0.01913944     2.63096036     0.38802443     0.00066490     0.00041304     0.00029699
H         0.01017164     1.01656759     0.65371950     0.00022708     0.00060628     0.00132831
    14
  Step:    14            Position(A)                                  Velocity(au)
C        -6.08647283    -0.83469028    -0.00574519    -0.00034411     0.00005782    -0.00021430
C        -4.65692694    -0.68017659     0.08981823     0.00038774     0.00031817     0.00006639
H        -6.64686159     0.04480380    -0.28328501    -0.00047090     0.00042187     0.00054817
H        -6.58261863    -1.69753168     0.36078071     0.00027997    -0.00075470     0.00063563
H        -4.10902149    -1.60507621     0.37953425    -0.00031614    -0.00100548     0.00010125
C        -3.99657257     0.45110411    -0.20324108    -0.00057917    -0.00038454    -0.00003700
C        -2.49154611     0.52323293     0.14795391     0.00037367     0.00021640     0.00006705
H        -4.32347709     1.41689254    -0.61333039     0.00008533     0.00091612     0.00026350
H        -2.02590835    -0.40638364     0.48497249     0.00137421    -0.00056074    -0.00045354
C        -1.85494714     1.70982049    -0.00795507    -0.00001024    -0.00039462    -0.00003026
H        -2.43795093     2.61626326    -0.31867567    -0.00041194     0.00018115     0.00018049
N        -0.46433394     1.77605410     0.26591664     0.00002974     0.00015552    -0.00009027
H         0.02687665     2.63695405     0.39115521     0.00072364     0.00064804     0.00026835
H         0.01356007     1.02093487     0.66912704     0.00037351     0.00021811     0.00147571
    14
  Step:    15            Position(A)                                  Velocity(au)
C        -6.09007189    -0.83392217    -0.00808658    -0.00031404     0.00008057    -0.00021238
C        -4.65292520    -0.67696619     0.09053972     0.00033935     0.00026226     0.00006654
H        -6.65259246     0.04947507    -0.27749854    -0.00057314     0.00042333     0.00051117
H        -6.58011372    -1.70681380     0.36788028     0.00019146    -0.00090985     0.00064837
H        -4.11252889    -1.61509383     0.38080449    -0.00032949    -0.00080260     0.00012516
C        -4.00261799     0.44706580    -0.20361761    -0.00052057    -0.00034652    -0.00003275
C        -2.48766079     0.52549430     0.14862227     0.00033428     0.00019018     0.00005577
H        -4.32346495     1.42621781    -0.61027115    -0.00007945     0.00076108     0.00030477
H        -2.01064776    -0.41219485     0.47992664     0.00139691    -0.00047336    -0.00047832
C        -1.85475788     1.70561418    -0.00821834     0.00004585    -0.00036870    -0.00001861
H        -2.44121942     2.61747984    -0.31646229    -0.00017838     0.00002827     0.00022627
N        -0.46429513     1.77786733     0.26483455    -0.00001802     0.00017522    -0.00010510
H         0.03497035     2.64513742     0.39389511     0.00072580     0.00080485     0.00022452
H         0.01834290     1.02133916     0.68600347     0.00046864    -0.00009570     0.00158377
    14
  Step:    16            Position(A)                                  Velocity(au)
C        -6.09334314    -0.83292766    -0.01039142    -0.00028465     0.00009887    -0.00020747
C        -4.64950303    -0.67443910     0.09127392     0.00028203     0.00019421     0.00006854
H        -6.65940006     0.05406489    -0.27210221    -0.00066576     0.00040550     0.00047737
H        -6.57843008    -1.71743635     0.37496509     0.00013191    -0.00099521     0.00063066
H        -4.11622977    -1.62263465     0.38227227    -0.00034881    -0.00055978     0.00013906
C        -4.00796096     0.44352342    -0.20395764    -0.00045144    -0.00029477    -0.00003018
C        -2.48423302     0.52739353     0.14917402     0.00029052     0.00015115     0.00004561
H        -4.32521515     1.43354266    -0.60666301    -0.00023710     0.00055630     0.00036114
H        -1.99534828    -0.41673924     0.47450830     0.00138282    -0.00033454    -0.00051949
C        -1.85394415     1.70175447    -0.00836211     0.00010373    -0.00033224    -0.00000826
H        -2.44185335     2.61688164    -0.31372553     0.00006497    -0.00014353     0.00027385
N        -0.46472815     1.77988746     0.26361746    -0.00005571     0.00019261    -0.00011428
H         0.04275491     2.65456162     0.39606708     0.00066667     0.00087295     0.00016451
H         0.02381255     1.01884132     0.70377499     0.00049222    -0.00030048     0.00163094
    14
  Step:    17            Position(A)                                  Velocity(au)
C        -6.09629916    -0.83175912    -0.01262528    -0.00025663     0.00011235    -0.00019938
C        -4.64675526    -0.67271754     0.09203923     0.00021651     0.00011636     0.00007196
H        -6.66715722     0.05834605    -0.26705509    -0.00074519     0.00036620     0.00044755
H        -6.57722799    -1.72858593     0.38167720     0.00010316    -0.00100596     0.00057983
H        -4.12015986    -1.62734008     0.38384659    -0.00036875    -0.00029194     0.00014643
C        -4.01249402     0.44061716    -0.20427778    -0.00037336    -0.00023157    -0.00002885
C        -2.48130522     0.52880107     0.14962010     0.00024338     0.00010155     0.00003628
H        -4.32865198     1.43838786    -0.60237059    -0.00038812     0.00031470     0.00042695
H        -1.98039597    -0.41951349     0.46856186     0.00133565    -0.00015637    -0.00057245
C        -1.85248856     1.69834581    -0.00839909     0.00016296    -0.00028743     0.00000110
H        -2.43979810     2.61433994    -0.31047120     0.00030852    -0.00031980     0.00031865
N        -0.46551388     1.78208110     0.26233437    -0.00008245     0.00020657    -0.00011697
H         0.04955501     2.66423481     0.39749414     0.00054869     0.00085404     0.00008919
H         0.02911111     1.01476568     0.72168344     0.00043721    -0.00038276     0.00160604
    14
  Step:    18            Position(A)                                  Velocity(au)
C        -6.09895752    -0.83046972    -0.01475330    -0.00023028     0.00012114    -0.00018820
C        -4.64476650    -0.67189345     0.09284812     0.00014393     0.00003186     0.00007615
H        -6.67570252     0.06207621    -0.26231129    -0.00080879     0.00030488     0.00042185
H        -6.57617331    -1.73944366     0.38764995     0.00010306    -0.00094491     0.00049659
H        -4.12429680    -1.62902149     0.38547562    -0.00038410    -0.00001496     0.00015090
C        -4.01612901     0.43845745    -0.20458876    -0.00028827    -0.00016002    -0.00002813
C        -2.47890871     0.52961518     0.14996773     0.00019390     0.00004414     0.00002740
H        -4.33370594     1.44042733    -0.59732271    -0.00053311     0.00005095     0.00049631
H        -1.96612844    -0.42016021     0.46198495     0.00126029     0.00004715    -0.00063228
C        -1.85037917     1.69546646    -0.00833802     0.00022299    -0.00023682     0.00000987
H        -2.43510397     2.60988549    -0.30675443     0.00054270    -0.00048591     0.00035623
N        -0.46653200     1.78440668     0.26105849    -0.00009874     0.00021666    -0.00011318
H         0.05475850     2.67324540     0.39801834     0.00038004     0.00075943     0.00000092
H         0.03337729     1.01046775     0.73891028     0.00030854    -0.00034777     0.00150855
    14
  Step:    19            Position(A)                                  Velocity(au)
C        -6.10133706    -0.82910893    -0.01674255    -0.00020560     0.00012571    -0.00017418
C        -4.64360661    -0.67202055     0.09370520     0.00006580    -0.00005553     0.00008034
H        -6.68485113     0.06501585    -0.25782630    -0.00085495     0.00022260     0.00039991
H        -6.57497345    -1.74925775     0.39254114     0.00012675    -0.00082062     0.00038434
H        -4.12856272    -1.62766743     0.38714791    -0.00038989     0.00025479     0.00015624
C        -4.01880058     0.43711632    -0.20489326    -0.00019836    -0.00008394    -0.00002723
C        -2.47706331     0.52976663     0.15021950     0.00014313    -0.00001799     0.00001852
H        -4.34031469     1.43950244    -0.59151292    -0.00067278    -0.00021932     0.00056339
H        -1.95282470    -0.41848190     0.45472958     0.00116245     0.00026115    -0.00069408
C        -1.84761028     1.69316487    -0.00818311     0.00028322    -0.00018326     0.00001848
H        -2.42792539     2.60370982    -0.30267800     0.00075808    -0.00062720     0.00038231
N        -0.46767394     1.78682095     0.25985835    -0.00010598     0.00022289    -0.00010361
H         0.05786922     2.68084879     0.39751418     0.00017282     0.00060673    -0.00009700
H         0.03586091     1.00715755     0.75468581     0.00011945    -0.00021348     0.00134632
    14
  Step:    20            Position(A)                                  Velocity(au)
C        -6.10345535    -0.82771955    -0.01856381    -0.00018239     0.00012671    -0.00015770
C        -4.64332709    -0.67310836     0.09460575    -0.00001611    -0.00014163     0.00008363
H        -6.69440623     0.06694608    -0.25356241    -0.00088306     0.00012198     0.00038092
H        -6.57340040    -1.75739621     0.39605819     0.00016791    -0.00064530     0.00024826
H        -4.13282641    -1.62344745     0.38889363    -0.00038133     0.00050077     0.00016628
C        -4.02046851     0.43662117    -0.20518441    -0.00010596    -0.00000753    -0.00002522
C        -2.47577739     0.52922160     0.15037296     0.00009211    -0.00008154     0.00000919
H        -4.34842429     1.43562927    -0.58499756    -0.00080799    -0.00048004     0.00062260
H        -1.94069759    -0.41444708     0.44680073     0.00104843     0.00047040    -0.00075314
C        -1.84418318     1.69145727    -0.00793377     0.00034300    -0.00012971     0.00002736
H        -2.41851949     2.59616428    -0.29839067     0.00094545    -0.00072938     0.00039281
N        -0.46885060     1.78928276     0.25879190    -0.00010615     0.00022551    -0.00008937