    14
  Step:     0            Position(A)                                  Velocity(au)
C        -5.95679947    -0.96623589    -0.13413713    -0.00014698    -0.00011745     0.00005075
C        -4.64445123    -0.65267778     0.10900675     0.00010167     0.00021914     0.00002319
H        -6.67149911    -0.14842756    -0.37675170    -0.00083158    -0.00013424    -0.00043272
H        -6.32995880    -1.93140713    -0.38457954     0.00064625    -0.00072827    -0.00050995
H        -3.97122490    -1.55244609     0.28483614    -0.00043142     0.00076946    -0.00039576
C        -4.04440273     0.62712153     0.05276721     0.00011950    -0.00010044    -0.00001892
C        -2.63830120     0.61720967     0.18580130     0.00012735     0.00034079     0.00002795
H        -4.52970379     1.61917592    -0.08165196    -0.00006230    -0.00063524     0.00090584
H        -2.05337554    -0.36628252     0.38368849    -0.00086339    -0.00048369     0.00001744
C        -1.77877746     1.75379081    -0.02143626     0.00031499    -0.00025219    -0.00006071
H        -2.11245174     2.71612502    -0.40130819     0.00057310    -0.00056939     0.00103966
N        -0.51921739     1.63810920     0.20791629    -0.00013613     0.00004544    -0.00014567
H         0.15362574     2.41494375    -0.06237577    -0.00139962    -0.00010326     0.00037717
H        -0.09094716     0.69073442     0.47473245    -0.00189436     0.00018249     0.00075719
    14
  Step:     1            Position(A)                                  Velocity(au)
C        -5.95860364    -0.96732930    -0.13370777    -0.00018343    -0.00008335     0.00002713
C        -4.64320833    -0.65038661     0.10929791     0.00012375     0.00020157     0.00002942
H        -6.68022987    -0.15044289    -0.38095110    -0.00075398    -0.00024522    -0.00033087
H        -6.32292852    -1.94060121    -0.38979538     0.00064532    -0.00092957    -0.00043828
H        -3.97641782    -1.54252877     0.28033354    -0.00050023     0.00102011    -0.00042290
C        -4.04337296     0.62597457     0.05256025     0.00006708    -0.00011028    -0.00001879
C        -2.63634647     0.62102507     0.18610434     0.00023072     0.00035494     0.00002772
H        -4.53059624     1.61107550    -0.07174378    -0.00010924    -0.00082548     0.00090152
H        -2.06433901    -0.36979603     0.38376860    -0.00113145    -0.00015413    -0.00000187
C        -1.77589768     1.75089024    -0.02215672     0.00020973    -0.00027869    -0.00007046
H        -2.10660185     2.70989915    -0.38971478     0.00048384    -0.00054175     0.00106615
N        -0.52007339     1.63854865     0.20638296    -0.00002284     0.00003345    -0.00013372
H         0.13698844     2.41200790    -0.05753512    -0.00159924    -0.00039882     0.00049589
H        -0.11270640     0.69518851     0.48238823    -0.00205415     0.00060686     0.00064773
    14
  Step:     2            Position(A)                                  Velocity(au)
C        -5.96081236    -0.96805925    -0.13354360    -0.00022060    -0.00005205     0.00000238
C        -4.64174399    -0.64826801     0.10965046     0.00014177     0.00018848     0.00003426
H        -6.68799387    -0.15379211    -0.38399021    -0.00065955    -0.00037286    -0.00022265
H        -6.31584116    -1.95174329    -0.39416782     0.00065785    -0.00107789    -0.00035457
H        -3.98216831    -1.53012920     0.27558436    -0.00052811     0.00121472    -0.00043966
C        -4.04293529     0.62470893     0.05235608     0.00001193    -0.00012269    -0.00001834
C        -2.63325384     0.62497456     0.18640764     0.00033383     0.00036564     0.00002787
H        -4.53209371     1.60111697    -0.06192956    -0.00017526    -0.00096957     0.00088844
H        -2.07812808    -0.36965448     0.38364751    -0.00137358     0.00017542    -0.00001735
C        -1.77418923     1.74769391    -0.02297760     0.00010307    -0.00030586    -0.00007888
H        -2.10186670     2.70427323    -0.37798402     0.00036987    -0.00046131     0.00106560
N        -0.51971708     1.63884088     0.20499092     0.00008232     0.00001877    -0.00012022
H         0.11863925     2.40621882    -0.05152722    -0.00169854    -0.00060672     0.00058524
H        -0.13588558     0.70401060     0.48890278    -0.00214551     0.00096132     0.00055519
    14
  Step:     3            Position(A)                                  Velocity(au)
C        -5.96342974    -0.96846803    -0.13365564    -0.00025764    -0.00002541    -0.00002317
C        -4.64010676    -0.64626321     0.11004738     0.00015491     0.00018141     0.00003740
H        -6.69465889    -0.15859999    -0.38582203    -0.00055798    -0.00050653    -0.00011224
H        -6.30853681    -1.96418219    -0.39755239     0.00068481    -0.00116351    -0.00025743
H        -3.98797127    -1.51595452     0.27071519    -0.00050515     0.00133687    -0.00044379
C        -4.04311201     0.62329053     0.05215896    -0.00004418    -0.00013843    -0.00001742
C        -2.62904335     0.62902406     0.18671400     0.00043305     0.00037344     0.00002812
H        -4.53443030     1.58986429    -0.05230738    -0.00026433    -0.00105821     0.00086639
H        -2.09438875    -0.36595827     0.38338902    -0.00157702     0.00048596    -0.00002503
C        -1.77364290     1.74419900    -0.02388231    -0.00000061    -0.00033244    -0.00008574
H        -2.09851035     2.69980714    -0.36640284     0.00023348    -0.00033443     0.00104068
N        -0.51827249     1.63895924     0.20375295     0.00017336     0.00000203    -0.00010601
H         0.09982965     2.39873471    -0.04473183    -0.00167216    -0.00069255     0.00063550
H        -0.15964357     0.71621912     0.49453403    -0.00215297     0.00120634     0.00049346
    14
  Step:     4            Position(A)                                  Velocity(au)
C        -5.96644873    -0.96861508    -0.13405038    -0.00029333    -0.00000470    -0.00004902
C        -4.63835513    -0.64429930     0.11046859     0.00016216     0.00018123     0.00003859
H        -6.70020078    -0.16487342    -0.38644558    -0.00045922    -0.00063546    -0.00000380
H        -6.30085973    -1.97719735    -0.39979956     0.00072471    -0.00118319    -0.00014722
H        -3.99321948    -1.50088270     0.26587564    -0.00042341     0.00137291    -0.00043354
C        -4.04390190     0.62168042     0.05197502    -0.00009880    -0.00015753    -0.00001584
C        -2.62378000     0.63314416     0.18702290     0.00052388     0.00037865     0.00002817
H        -4.53787651     1.57796663    -0.04297555    -0.00037875    -0.00108582     0.00083555
H        -2.11262852    -0.35902327     0.38309993    -0.00172930     0.00075696    -0.00002098
C        -1.77420263     1.74042114    -0.02485339    -0.00009728    -0.00035633    -0.00009114
H        -2.09675898     2.69695704    -0.35521707     0.00007918    -0.00017349     0.00099606
N        -0.51592461     1.63888524     0.20267175     0.00024559    -0.00001580    -0.00009211
H         0.08205756     2.39106787    -0.03762436    -0.00150388    -0.00063038     0.00064030
H        -0.18298581     0.73040168     0.49969816    -0.00206530     0.00130558     0.00047671
    14
  Step:     5            Position(A)                                  Velocity(au)
C        -5.96984682    -0.96857082    -0.13472804    -0.00032610     0.00000933    -0.00007455
C        -4.63655918    -0.64229845     0.11089169     0.00016252     0.00018787     0.00003769
H        -6.70470524    -0.17250196    -0.38590511    -0.00037327    -0.00074911     0.00009862
H        -6.29268234    -1.99006670    -0.40077321     0.00077422    -0.00113938    -0.00002584
H        -3.99723425    -1.48591941     0.26123069    -0.00027903     0.00131491    -0.00040820
C        -4.04527341     0.61984435     0.05181238    -0.00014913    -0.00017912    -0.00001345
C        -2.61758240     0.63730780     0.18733030     0.00060136     0.00038149     0.00002769
H        -4.54271624     1.56610994    -0.03402805    -0.00051835    -0.00105178     0.00079656
H        -2.13222056    -0.34939822     0.38293001    -0.00181854     0.00096641    -0.00000120
C        -1.77577106     1.73640356    -0.02587610    -0.00018350    -0.00037475    -0.00009544
H        -2.09677802     2.69601179    -0.34461203    -0.00008671     0.00000419     0.00093778
N        -0.51289984     1.63861353     0.20173796     0.00029656    -0.00003324    -0.00007969
H         0.06692930     2.38494386    -0.03072405    -0.00119389    -0.00041253     0.00059952
H        -0.20482588     0.74478129     0.50496299    -0.00187854     0.00123349     0.00051684
    14
  Step:     6            Position(A)                                  Velocity(au)
C        -5.97358272    -0.96841103    -0.13568125    -0.00035419     0.00001639    -0.00009904
C        -4.63479974    -0.64018922     0.11129322     0.00015527     0.00020022     0.00003469
H        -6.70836672    -0.18126158    -0.38428804    -0.00030982    -0.00083746     0.00019126
H        -6.28392226    -2.00212357    -0.40036494     0.00082874    -0.00103913     0.00010376
H        -3.99932372    -1.47211643     0.25694555    -0.00007478     0.00116417    -0.00036873
C        -4.04716431     0.61776180     0.05168071    -0.00019272    -0.00020165    -0.00001015
C        -2.61062416     0.64148990     0.18762858     0.00066080     0.00038211     0.00002638
H        -4.54921633     1.55495703    -0.02554932    -0.00067978    -0.00096143     0.00075054
H        -2.15241255    -0.33788109     0.38307359    -0.00183439     0.00109189     0.00003833
C        -1.77821705     1.73222271    -0.02694126    -0.00025658    -0.00038462    -0.00009922
H        -2.09865583     2.69704877    -0.33470137    -0.00025686     0.00017868     0.00087237
N        -0.50943685     1.63815806     0.20092831     0.00032673    -0.00004834    -0.00007003
H         0.05593885     2.38204302    -0.02450872    -0.00076464    -0.00005882     0.00052168
H        -0.22408250     0.75738660     0.51100493    -0.00159884     0.00098553     0.00061954
    14
  Step:     7            Position(A)                                  Velocity(au)
C        -5.97759544    -0.96821232    -0.13689479    -0.00037592     0.00001657    -0.00012179
C        -4.63316227    -0.63791820     0.11165056     0.00014045     0.00021612     0.00002976
H        -6.71148315    -0.19082298    -0.38172101    -0.00027775    -0.00089162     0.00027076
H        -6.27455197    -2.01279972    -0.39850327     0.00088322    -0.00089263     0.00023792
H        -3.99887016    -1.46045100     0.25316406     0.00017784     0.00093382    -0.00031818
C        -4.04948949     0.61543288     0.05159025    -0.00022802    -0.00022302    -0.00000595
C        -2.60312610     0.64566722     0.18790746     0.00069858     0.00038065     0.00002407
H        -4.55758775     1.54507673    -0.01760855    -0.00085621    -0.00082650     0.00069906
H        -2.17235145    -0.32551094     0.38376857    -0.00176976     0.00111347     0.00010136
C        -1.78138416     1.72798921    -0.02804669    -0.00031460    -0.00038302    -0.00010311
H        -2.10239725     2.69992075    -0.32552718    -0.00042384     0.00033037     0.00080590
N        -0.50575206     1.63755592     0.20020594     0.00033957    -0.00005912    -0.00006416
H         0.05020139     2.38365715    -0.01931129    -0.00026127     0.00038030     0.00042394
H        -0.23980355     0.76634168     0.51851669    -0.00124367     0.00058730     0.00078009
    14
  Step:     8            Position(A)                                  Velocity(au)
C        -5.98180667    -0.96804862    -0.13834563    -0.00038989     0.00001027    -0.00014214
C        -4.63172706    -0.63546108     0.11194419     0.00011900     0.00023253     0.00002327
H        -6.71444302    -0.20076738    -0.37836470    -0.00028420    -0.00090471     0.00033455
H        -6.26460023    -2.02165157    -0.39515995     0.00093257    -0.00071205     0.00037263
H        -3.99543304    -1.45168744     0.24998479     0.00045834     0.00064896    -0.00026151
C        -4.05215268     0.61288286     0.05155051    -0.00025453    -0.00024084    -0.00000095
C        -2.59534138     0.64981736     0.18815516     0.00071250     0.00037693     0.00002072
H        -4.56794757     1.53687572    -0.01025593    -0.00103756    -0.00066403     0.00064392
H        -2.19112945    -0.31352174     0.38529114    -0.00162278     0.00101829     0.00019050
C        -1.78509954     1.72384351    -0.02919704    -0.00035640    -0.00036754    -0.00010769
H        -2.10792821     2.70427629    -0.31707080    -0.00058100     0.00044293     0.00074303
N        -0.50200805     1.63686460     0.19952475     0.00034083    -0.00006426    -0.00006251
H         0.05022296     2.39036290    -0.01523413     0.00025605     0.00083174     0.00032870
H        -0.25129022     0.77023487     0.52807083    -0.00084013     0.00009665     0.00098081
    14
  Step:     9            Position(A)                                  Velocity(au)
C        -5.98612508    -0.96798766    -0.14000436    -0.00039518    -0.00000175    -0.00015959
C        -4.63055885    -0.63283113     0.11215953     0.00009265     0.00024583     0.00001571
H        -6.71770053    -0.21061519    -0.37440199    -0.00033337    -0.00087308     0.00038130
H        -6.25415023    -2.02837718    -0.39035126     0.00097205    -0.00051083     0.00050384
H        -3.98884305    -1.44625368     0.24744300     0.00073948     0.00034343    -0.00020484
C        -4.05505788     0.61016399     0.05156947    -0.00027263    -0.00025269     0.00000470
C        -2.58753871     0.65391329     0.18836070     0.00070194     0.00037005     0.00001654
H        -4.58028646     1.53054976    -0.00352151    -0.00121157    -0.00049414     0.00058685
H        -2.20785285    -0.30323388     0.38793602    -0.00139876     0.00080656     0.00030583
C        -1.78918117     1.71994855    -0.03040255    -0.00038144    -0.00033659    -0.00011336
H        -2.11510778     2.70961064    -0.30927203    -0.00072300     0.00050544     0.00068655
N        -0.49829568     1.63615005     0.19883846     0.00033704    -0.00006374    -0.00006461
H         0.05580298     2.40185296    -0.01212044     0.00072615     0.00121770     0.00025760
H        -0.25818311     0.76845616     0.53997386    -0.00042014    -0.00040556     0.00119286
    14
  Step:    10            Position(A)                                  Velocity(au)
C        -5.99045195    -0.96808681    -0.14183687    -0.00039140    -0.00001832    -0.00017379
C        -4.62970016    -0.63008309     0.11228786     0.00006349     0.00025237     0.00000761
H        -6.72173614    -0.21986774    -0.37002303    -0.00042533    -0.00079739     0.00041117
H        -6.24333476    -2.03282697    -0.38413746     0.00099742    -0.00030318     0.00062765
H        -3.97925549    -1.44417414     0.24550350     0.00099197     0.00005345    -0.00015428
C        -4.05811695     0.60735475     0.05165326    -0.00028323    -0.00025635     0.00001082
C        -2.57998511     0.65791302     0.18851692     0.00066778     0.00035811     0.00001203
H        -4.59445294     1.52606547     0.00258254    -0.00136541    -0.00033695     0.00052928
H        -2.22173002    -0.29587659     0.39198174    -0.00111093     0.00049626     0.00044383
C        -1.79344435     1.71647986    -0.03167708    -0.00038973    -0.00028953    -0.00012037
H        -2.12374516     2.71533383    -0.30205120    -0.00084607     0.00051340     0.00063733
N        -0.49463458     1.63547025     0.19811123     0.00033395    -0.00005888    -0.00006917
H         0.06610878     2.41700248    -0.00959871     0.00110085     0.00147577     0.00022588
H        -0.26048157     0.76136239     0.55416696    -0.00001420    -0.00083479     0.00138244
    14
  Step:    11            Position(A)                                  Velocity(au)
C        -5.99468760    -0.96838835    -0.14380642    -0.00037878    -0.00003782    -0.00018463
C        -4.62917000    -0.62731002     0.11232595     0.00003348     0.00024912    -0.00000060
H        -6.72700542    -0.22805968    -0.36540690    -0.00055498    -0.00068345     0.00042608
H        -6.23232985    -2.03500975    -0.37662020     0.00100505    -0.00010367     0.00074046
H        -3.96714177    -1.44508429     0.24406793     0.00119006    -0.00018953    -0.00011473
C        -4.06125401     0.60455591     0.05180622    -0.00028750    -0.00025011     0.00001728
C        -2.57292967     0.66174771     0.18862383     0.00061227     0.00033823     0.00000798
H        -4.61015740     1.52317825     0.00805745    -0.00148754    -0.00020954     0.00047220
H        -2.23215650    -0.29237726     0.39764560    -0.00077917     0.00012368     0.00059680
C        -1.79770733     1.71361443    -0.03303578    -0.00038178    -0.00022674    -0.00012870
H        -2.13361709     2.72084225    -0.29532925    -0.00094790     0.00046834     0.00059464
N        -0.49098980     1.63486200     0.19732532     0.00033544    -0.00005179    -0.00007445
H         0.07988617     2.43413828    -0.00717898     0.00135321     0.00157161     0.00023957
H        -0.25849377     0.75019352     0.57021731     0.00035375    -0.00112375     0.00151924
    14
  Step:    12            Position(A)                                  Velocity(au)
C        -5.99873841    -0.96891422    -0.14587597    -0.00035817    -0.00005820    -0.00019216
C        -4.62896771    -0.62463315     0.11227467     0.00000413     0.00023413    -0.00000864
H        -6.73387735    -0.23481950    -0.36070181    -0.00071173    -0.00054234     0.00042959
H        -6.22134747    -2.03509494    -0.36793844     0.00099203     0.00007315     0.00083913
H        -3.95322060    -1.44832057     0.24299360     0.00131584    -0.00036409    -0.00008917
C        -4.06440662     0.60188306     0.05203133    -0.00028666    -0.00023306     0.00002397
C        -2.56659052     0.66531252     0.18869140     0.00053864     0.00030713     0.00000534
H        -4.62699562     1.52148139     0.01291277    -0.00156916    -0.00012362     0.00041617
H        -2.23877594    -0.29317077     0.40503784    -0.00042695    -0.00026185     0.00075358
C        -1.80179653     1.71151941    -0.03449266    -0.00035857    -0.00014964    -0.00013816
H        -2.14448234     2.72557961    -0.28904227    -0.00102742     0.00037675     0.00055668
N        -0.48729612     1.63433722     0.19648256     0.00034323    -0.00004453    -0.00007886
H         0.09571278     2.45138447    -0.00435770     0.00147777     0.00150057     0.00029625
H        -0.25274258     0.73677815     0.58740332     0.00066877    -0.00123571     0.00158318
    14
  Step:    13            Position(A)                                  Velocity(au)
C        -6.00252322    -0.96966169    -0.14801023    -0.00033094    -0.00007711    -0.00019661
C        -4.62907975    -0.62218793     0.11213704    -0.00002372     0.00020679    -0.00001638
H        -6.74257577    -0.23992431    -0.35600879    -0.00088037    -0.00038927     0.00042642
H        -6.21062738    -2.03340956    -0.35826256     0.00095622     0.00021332     0.00092114
H        -3.93835521    -1.45304943     0.24211723     0.00136107    -0.00046071    -0.00007845
C        -4.06752515     0.59945722     0.05233070    -0.00028178    -0.00020516     0.00003084
C        -2.56114580     0.66846685     0.18874070     0.00045076     0.00026207     0.00000507
H        -4.64448578     1.52047386     0.01716187    -0.00160513    -0.00008457     0.00036140
H        -2.24149681    -0.29810572     0.41413171    -0.00007721    -0.00060846     0.00090150
C        -1.80555165     1.71034080    -0.03605837    -0.00032154    -0.00006062    -0.00014835
H        -2.15609381     2.72908448    -0.28315079    -0.00108453     0.00024882     0.00052100
N        -0.48348106     1.63388785     0.19560008     0.00035722    -0.00003850    -0.00008132
H         0.11221524     2.46696611    -0.00069805     0.00148541     0.00128080     0.00038787
H        -0.24386310     0.72315994     0.60485244     0.00092452    -0.00116595     0.00156681
    14
  Step:    14            Position(A)                                  Velocity(au)
C        -6.00597839    -0.97060123    -0.15017714    -0.00029882    -0.00009215    -0.00019832
C        -4.62948659    -0.62010928     0.11191633    -0.00004974     0.00016768    -0.00002388
H        -6.75313723    -0.24333562    -0.35137302    -0.00104313    -0.00024145     0.00042162
H        -6.20042822    -2.03042811    -0.34778671     0.00089639     0.00030439     0.00098476
H        -3.92344467    -1.45839940     0.24127734     0.00132638    -0.00048053    -0.00008169
C        -4.07057109     0.59739473     0.05270608    -0.00027380    -0.00016725     0.00003787
C        -2.55672922     0.67104586     0.18880233     0.00035273     0.00020179     0.00000786
H        -4.66211094     1.51963132     0.02081907    -0.00159398    -0.00009183     0.00030792
H        -2.24046503    -0.30648197     0.42475986     0.00025090    -0.00087290     0.00102877
C        -1.80883088     1.71019315    -0.03773807    -0.00027262     0.00003701    -0.00015868
H        -2.16820849     2.73102297    -0.27764436    -0.00111999     0.00009704     0.00048491
N        -0.47948126     1.63349503     0.19470345     0.00037617    -0.00003429    -0.00008137
H         0.12820892     2.47940448     0.00412767     0.00139636     0.00094343     0.00050398
H        -0.23251705     0.71127081     0.62168034     0.00112119    -0.00093432     0.00147380
    14
  Step:    15            Position(A)                                  Velocity(au)
C        -6.00906058    -0.97167769    -0.15234882    -0.00026368    -0.00010123    -0.00019768
C        -4.63016780    -0.61851952     0.11161472    -0.00007396     0.00011839    -0.00003126
H        -6.76539622    -0.24520653    -0.34678503    -0.00118228    -0.00011530     0.00041969
H        -6.19101721    -2.02675047    -0.33671898     0.00081228     0.00033679     0.00102931
H        -3.90933813    -1.46356187     0.24033009     0.00121898    -0.00043228    -0.00009685
C        -4.07351516     0.59579839     0.05315927    -0.00026352    -0.00012089     0.00004508
C        -2.55342915     0.67288145     0.18891258     0.00024865     0.00012709     0.00001398
H        -4.67935720     1.51846495     0.02389827    -0.00153747    -0.00014009     0.00025569
H        -2.23600782    -0.31720201     0.43663798     0.00054375    -0.00102820     0.00112659
C        -1.81151579     1.71115040    -0.03952970    -0.00021410     0.00013922    -0.00016842
H        -2.18059565     2.73120748    -0.27254243    -0.00113525    -0.00006483     0.00044574
N        -0.47525158     1.63313762     0.19382003     0.00039823    -0.00003190    -0.00007904
H         0.14276337     2.48760537     0.01032746     0.00123467     0.00052443     0.00063397
H        -0.21933494     0.70271981     0.63709470     0.00126310    -0.00057466     0.00131526
    14
  Step:    16            Position(A)                                  Velocity(au)
C        -6.01174684    -0.97281581    -0.15450180    -0.00022727    -0.00010292    -0.00019509
C        -4.63110467    -0.61751924     0.11123246    -0.00009657     0.00006114    -0.00003872
H        -6.77900179    -0.24585799    -0.34219144    -0.00128285    -0.00002395     0.00042389
H        -6.18265799    -2.02306012    -0.32526858     0.00070484     0.00030566     0.00105533
H        -3.89677717    -1.46785636     0.23915847     0.00104990    -0.00032896    -0.00012136
C        -4.07633604     0.59474999     0.05369238    -0.00025161    -0.00006827     0.00005251
C        -2.55128946     0.67382631     0.18910816     0.00014251     0.00004081     0.00002326
H        -4.69574606     1.51656649     0.02641280    -0.00143994    -0.00022066     0.00020468
H        -2.22856948    -0.32897583     0.44940618     0.00079313    -0.00106535     0.00119008
C        -1.81351481     1.71323880    -0.04142252    -0.00014853     0.00024145    -0.00017674
H        -2.19304429     2.72960475    -0.26789297    -0.00113244    -0.00022268     0.00040100
N        -0.47076923     1.63279726     0.19297424     0.00042131    -0.00003096    -0.00007474
H         0.15521965     2.49087742     0.01799703     0.00102492     0.00006004     0.00076822
H        -0.20488434     0.69869893     0.65045409     0.00135667    -0.00012587     0.00110609
    14
  Step:    17            Position(A)                                  Velocity(au)
C        -6.01403254    -0.97392930    -0.15661688    -0.00019111    -0.00009674    -0.00019093
C        -4.63228055    -0.61718205     0.11076756    -0.00011774    -0.00000148    -0.00004647
H        -6.79346093    -0.24573040    -0.33751170    -0.00133455     0.00002448     0.00043584
H        -6.17559743    -2.02006351    -0.31363159     0.00057621     0.00021241     0.00106467
H        -3.88636949    -1.47075845     0.23767509     0.00083189    -0.00018528    -0.00015251
C        -4.07901950     0.59430493     0.05430796    -0.00023869    -0.00001192     0.00006018
C        -2.55031152     0.67377416     0.18942133     0.00003805    -0.00005274     0.00003510
H        -4.71085875     1.51363762     0.02837599    -0.00130760    -0.00032279     0.00015492
H        -2.21865661    -0.34050864     0.46267326     0.00099519    -0.00099014     0.00121810
C        -1.81476527     1.71643265    -0.04339625    -0.00007856     0.00033893    -0.00018277
H        -2.20536996     2.72633604    -0.26376971    -0.00111426    -0.00036269     0.00034852
N        -0.46603465     1.63246021     0.19218493     0.00044328    -0.00003110    -0.00006904
H         0.16518543     2.48891892     0.02713384     0.00079121    -0.00041480     0.00089836
H        -0.18965525     0.69996622     0.66129251     0.00140930     0.00037312     0.00086269
    14
  Step:    18            Position(A)                                  Velocity(au)
C        -6.01592771    -0.97493227    -0.15867881    -0.00015635    -0.00008329    -0.00018554
C        -4.63368049    -0.61755163     0.11021576    -0.00013759    -0.00006670    -0.00005471
H        -6.80819768    -0.24532252    -0.33265660    -0.00133259     0.00002736     0.00045562
H        -6.17005222    -2.01841328    -0.30197693     0.00042974     0.00006593     0.00106033
H        -3.87857809    -1.47190972     0.23582193     0.00057807    -0.00001623    -0.00018774
C        -4.08155788     0.59448917     0.05500902    -0.00022535     0.00004540     0.00006815
C        -2.55045709     0.67267253     0.18987612    -0.00006129    -0.00014843     0.00004869
H        -4.72435236     1.50950484     0.02980204    -0.00114787    -0.00043482     0.00010654
H        -2.20679777    -0.35063694     0.47605435     0.00114913    -0.00081801     0.00121243
C        -1.81523355     1.72065360    -0.04542099    -0.00000676     0.00042698    -0.00018566
H        -2.21742093     2.72167026    -0.26026847    -0.00108390    -0.00047206     0.00028647
N        -0.46107171     1.63211698     0.19146396     0.00046197    -0.00003196    -0.00006261
H         0.17252891     2.48180287     0.03765041     0.00055744    -0.00086604     0.00101711
H        -0.17405319     0.70686156     0.66932715     0.00142901     0.00088491     0.00060202
    14
  Step:    19            Position(A)                                  Velocity(au)
C        -6.01745298    -0.97575139    -0.16067592    -0.00012379    -0.00006417    -0.00017922
C        -4.63529049    -0.61864116     0.10957066    -0.00015619    -0.00013176    -0.00006362
H        -6.82261397    -0.24513174    -0.32754421    -0.00127727    -0.00001298     0.00048205
H        -6.16619605    -2.01862115    -0.29043479     0.00026980    -0.00011736     0.00104613
H        -3.87372300    -1.47111355     0.23356793     0.00030144     0.00016364    -0.00022468
C        -4.08394955     0.59529807     0.05579897    -0.00021211     0.00010092     0.00007645
C        -2.55165238     0.67052705     0.19048642    -0.00015250    -0.00024108     0.00006306
H        -4.73597070     1.50412517     0.03070683    -0.00096905    -0.00054478     0.00005972
H        -2.19351713    -0.35840420     0.48919750     0.00125607    -0.00056908     0.00117679
C        -1.81491326     1.72577374    -0.04745795     0.00006454     0.00050141    -0.00018467
H        -2.22908239     2.71600886    -0.25750255    -0.00104475    -0.00053987     0.00021356
N        -0.45592808     1.63176103     0.19081526     0.00047517    -0.00003333    -0.00005624
H         0.17738058     2.46997273     0.04938509     0.00034803    -0.00125953     0.00111811
H        -0.15839282     0.71932525     0.67446278     0.00142459     0.00137323     0.00034166
    14
  Step:    20            Position(A)                                  Velocity(au)
C        -6.01863592    -0.97633609    -0.16259968    -0.00009392    -0.00004177    -0.00017224
C        -4.63709749    -0.62043405     0.10882395    -0.00017369    -0.00019402    -0.00007337
H        -6.83614040    -0.24560658    -0.32211089    -0.00117305    -0.00009049     0.00051316
H        -6.16414975    -2.02098084    -0.27909087     0.00010149    -0.00031533     0.00102604
H        -3.87198354    -1.46832971     0.23090658     0.00001483     0.00034023    -0.00026118
C        -4.08619815     0.59669692     0.05668148    -0.00019938     0.00015198     0.00008508
C        -2.55379326     0.66739838     0.19125563    -0.00023310    -0.00032602     0.00007730
H        -4.74555218     1.49758682     0.03110854    -0.00078001    -0.00064084     0.00001468
H        -2.17931877    -0.36308668     0.50179896     0.00131839    -0.00026476     0.00111602
C        -1.81382171     1.73162285    -0.04946103     0.00013336     0.00055882    -0.00017924
H        -2.24027683     2.70985954    -0.25559646    -0.00099996    -0.00055822     0.00012912
N        -0.45067654     1.63138772     0.19023356     0.00048051    -0.00003504    -0.00005086