 Fermi distribution function

Calculation with static geometry


********************************************************************************
 iSCC Total electronic   Diff electronic      SCC error    
   13   -0.52824089E+01   -0.75228712E-12    0.80801038E-07
********************************************************************************

 Total charge:     1.00000000

 Atomic gross charges (e)
 Atom           Charge
    1       0.30684742
    2      -0.19887025
    3       0.17473709
    4       0.26110330
    5       0.27539539
    6       0.18078705

Nr. of electrons (up):     12.00000000
Atom populations (up)
 Atom       Population
    1       3.69315258
    2       5.19887025
    3       0.82526291
    4       0.73889670
    5       0.72460461
    6       0.81921295

l-shell populations (up)
 Atom Sh.   l       Population
    1   1   0       1.39792569
    1   2   1       2.29522689
    2   1   0       1.50668768
    2   2   1       3.69218257
    3   1   0       0.82526291
    4   1   0       0.73889670
    5   1   0       0.72460461
    6   1   0       0.81921295

Orbital populations (up)
 Atom Sh.   l   m       Population  Label
    1   1   0   0       1.39792569  s
    1   2   1  -1       0.46501518  p_y
    1   2   1   0       0.86833505  p_z
    1   2   1   1       0.96187666  p_x
    2   1   0   0       1.50668768  s
    2   2   1  -1       1.36576139  p_y
    2   2   1   0       1.09769188  p_z
    2   2   1   1       1.22872930  p_x
    3   1   0   0       0.82526291  s
    4   1   0   0       0.73889670  s
    5   1   0   0       0.72460461  s
    6   1   0   0       0.81921295  s

Fermi level:                        -0.5110011539 H          -13.9050 eV
Band energy:                        -8.6723659638 H         -235.9871 eV
TS:                                  0.0000000000 H            0.0000 eV
Band free energy (E-TS):            -8.6723659638 H         -235.9871 eV
Extrapolated E(0K):                 -8.6723659638 H         -235.9871 eV
Input / Output electrons (q):     12.0000000000     12.0000000000

Energy H0:                          -5.4174959503 H         -147.4176 eV
Energy SCC:                          0.1350870832 H            3.6759 eV
Total Electronic energy:            -5.2824088671 H         -143.7417 eV
Repulsive energy:                    0.1387110056 H            3.7745 eV
Total energy:                       -5.1436978615 H         -139.9671 eV
Extrapolated to 0:                  -5.1436978615 H         -139.9671 eV
Total Mermin free energy:           -5.1436978615 H         -139.9671 eV
Force related energy:               -5.1436978615 H         -139.9671 eV

SCC converged

Excitation Energy:                   0.0975698970 H            2.6550 eV

Total Forces
    1     -0.002185639543     -0.007217938242      0.051228935486
    2     -0.019080135098     -0.006393090982     -0.061130955515
    3     -0.006633615599     -0.007174158920      0.003020000749
    4      0.004939427630      0.009554287022      0.005994177770
    5      0.015749392170     -0.001472088994     -0.002914142272
    6      0.007210570440      0.012702990116      0.003801983782

Maximal derivative component:        0.611310E-01 au


