|===============================================================================
|
|  DFTB+ release 20.1
|
|  Copyright (C) 2006 - 2020  DFTB+ developers group
|
|===============================================================================
|
|  When publishing results obtained with DFTB+, please cite the following
|  reference:
|
|  * DFTB+, a software package for efficient approximate density functional
|    theory based atomistic simulations, J. Chem. Phys. 152, 124101 (2020).
|    [doi: 10.1063/1.5143190]
|
|  You should also cite additional publications crediting the parametrization
|  data you use. Please consult the documentation of the SK-files for the
|  references.
|
|===============================================================================

Reading input file 'dftb_in.hsd'
Parser version: 8

--------------------------------------------------------------------------------
Reading SK-files:
Done.


Processed input in HSD format written to 'dftb_pin.hsd'

Starting initialization...
--------------------------------------------------------------------------------
WARNING!
-> Excited state forces are not implemented yet for fractional occupations, kT=  0.3158E-02K
OpenMP threads:              1
Chosen random seed:          508205095
Mode:                        Static calculation
Self consistent charges:     Yes
SCC-tolerance:                 0.100000E-05
Max. scc iterations:                    100
Shell resolved Hubbard:      No
Spin polarisation:           No
Nr. of up electrons:             6.000000
Nr. of down electrons:           6.000000
Periodic boundaries:         No
Electronic solver:           Relatively robust
Mixer:                       Broyden mixer
Mixing parameter:                  0.200000
Maximal SCC-cycles:                     100
Nr. of chrg. vec. in memory:              0
Electronic temperature:        0.100000E-07 H      0.272114E-06 eV
Initial charges:             Set automatically (system chrg:   0.100E+01)
Included shells:             C:  s, p
                             N:  s, p
                             H:  s
Extra options:
                             Mulliken analysis
                             Force calculation
Force type                   original
                             Eigenvector printing

--------------------------------------------------------------------------------

***  Geometry step: 0

 iSCC Total electronic   Diff electronic      SCC error    
    1   -0.52465712E+01    0.00000000E+00    0.10801911E+01
    2   -0.52696490E+01   -0.23077849E-01    0.67391744E+00
    3   -0.52778348E+01   -0.81857945E-02    0.28659038E+00
    4   -0.49341999E+01    0.34363499E+00    0.18784813E+01
    5   -0.52806619E+01   -0.34646204E+00    0.13468121E+00
    6   -0.52824046E+01   -0.17427474E-02    0.11709421E-01
    7   -0.52824017E+01    0.29492594E-05    0.13030168E-01
    8   -0.52824072E+01   -0.55528348E-05    0.44923647E-02
    9   -0.52824070E+01    0.28687873E-06    0.47439136E-02
   10   -0.52824087E+01   -0.17433997E-05    0.13918376E-02
   11   -0.52824088E+01   -0.13016890E-06    0.66387844E-03
   12   -0.52824089E+01   -0.37190316E-07    0.34448039E-05
   13   -0.52824089E+01   -0.75228712E-12    0.80801038E-07
>> Charges saved for restart in charges.bin

Total Energy:                       -5.0461279645 H         -137.3121 eV
Extrapolated to 0:                  -5.1436978615 H         -139.9671 eV
Total Mermin free energy:           -5.0461279645 H         -137.3121 eV
Force related energy:               -5.1436978615 H         -139.9671 eV

--------------------------------------------------------------------------------
DFTB+ running times                          cpu [s]             wall clock [s]
--------------------------------------------------------------------------------
SCC                                    +     0.02  ( 75.6%)      0.07  ( 77.7%)
Post-SCC processing                    +     0.01  ( 18.5%)      0.01  ( 16.0%)
--------------------------------------------------------------------------------
Missing                                +     0.00  (  5.9%)      0.01  (  6.4%)
Total                                  =     0.03  (100.0%)      0.09  (100.0%)
--------------------------------------------------------------------------------
