     6
  Step:     0            Position(A)                                  Velocity(au)
C        -0.03856591     0.00908592     0.03760855     0.00010667     0.00003727    -0.00005951
N        -0.03726368    -0.05923724     1.28225352    -0.00008823     0.00004927     0.00007837
H         0.89341255     0.01476490    -0.52651604    -0.00092961    -0.00022640     0.00014836
H         0.78704057    -0.07976559     1.83197965     0.00089016    -0.00038565     0.00043475
H        -0.95250467    -0.02332315     1.82934380     0.00033417    -0.00028755    -0.00083031
H        -0.96350366     0.13345946    -0.50955749    -0.00033977    -0.00022917    -0.00013280
     6
  Step:     1            Position(A)                                  Velocity(au)
C        -0.03797614     0.00928508     0.03684695     0.00010780     0.00003557    -0.00021827
N        -0.03781087    -0.05900637     1.28305463    -0.00011024     0.00003511     0.00021435
H         0.88865205     0.01366376    -0.52572821    -0.00080254    -0.00017574     0.00013419
H         0.79254296    -0.08173530     1.83466729     0.00110654    -0.00033466     0.00053918
H        -0.95043181    -0.02477553     1.82462208     0.00041604    -0.00024258    -0.00089029
H        -0.96574238     0.13240141    -0.51036888    -0.00047279    -0.00015879    -0.00016095
     6
  Step:     2            Position(A)                                  Velocity(au)
C        -0.03738680     0.00947497     0.03522121     0.00010647     0.00003383    -0.00037502
N        -0.03846940    -0.05885319     1.28459802    -0.00012868     0.00002084     0.00034928
H         0.88463462     0.01284275    -0.52504832    -0.00065967    -0.00012365     0.00010894
H         0.79914358    -0.08342600     1.83787698     0.00128957    -0.00028326     0.00062512
H        -0.94795420    -0.02597645     1.81960608     0.00048069    -0.00019531    -0.00093628
H        -0.96867484     0.13172269    -0.51131787    -0.00059116    -0.00009046    -0.00018280
     6
  Step:     3            Position(A)                                  Velocity(au)
C        -0.03681153     0.00965512     0.03274489     0.00010259     0.00003198    -0.00052842
N        -0.03921841    -0.05877844     1.28687513    -0.00014299     0.00000645     0.00048175
H         0.88143653     0.01231126    -0.52453659    -0.00050484    -0.00006981     0.00007283
H         0.80664842    -0.08483364     1.84150492     0.00143433    -0.00023095     0.00069150
H        -0.94517393    -0.02691191     1.81438095     0.00052493    -0.00014542    -0.00096427
H        -0.97220857     0.13141199    -0.51236842    -0.00068994    -0.00002446    -0.00019794
     6
  Step:     4            Position(A)                                  Velocity(au)
C        -0.03626411     0.00982495     0.02943836     0.00009620     0.00003010    -0.00067666
N        -0.04003418    -0.05878265     1.28987006    -0.00015263    -0.00000790     0.00060991
H         0.87910991     0.01207882    -0.52425125    -0.00034304    -0.00001494     0.00002650
H         0.81484030    -0.08595340     1.84544441     0.00153663    -0.00017829     0.00073785
H        -0.94220956    -0.02756786     1.80905351     0.00054573    -0.00009362    -0.00097022
H        -0.97622527     0.13145497    -0.51348405    -0.00076473     0.00003798    -0.00020658
     6
  Step:     5            Position(A)                                  Velocity(au)
C        -0.03575758     0.00998485     0.02533182     0.00008753     0.00002842    -0.00081710
N        -0.04089053    -0.05886497     1.29355690    -0.00015719    -0.00002180     0.00073124
H         0.87767840     0.01214758    -0.52424632    -0.00017940     0.00003880    -0.00002888
H         0.82348272    -0.08678692     1.84958835     0.00159330    -0.00012714     0.00076399
H        -0.93919527    -0.02793751     1.80375186     0.00054028    -0.00004196    -0.00095066
H        -0.98058638     0.13182802    -0.51463159    -0.00081291     0.00009464    -0.00020953
     6
  Step:     6            Position(A)                                  Velocity(au)
C        -0.03530350     0.01013684     0.02047116     0.00007689     0.00002719    -0.00094596
N        -0.04175922    -0.05902192     1.29789504    -0.00015635    -0.00003474     0.00084231
H         0.87714107     0.01250464    -0.52456814    -0.00001779     0.00008854    -0.00009134
H         0.83232590    -0.08734873     1.85382876     0.00160280    -0.00007984     0.00076967
H        -0.93628023    -0.02802832     1.79862055     0.00050605     0.00000689    -0.00090344
H        -0.98514659     0.13249360    -0.51578356    -0.00083472     0.00014313    -0.00020783
     6
  Step:     7            Position(A)                                  Velocity(au)
C        -0.03491161     0.01028404     0.01492447     0.00006466     0.00002649    -0.00105878
N        -0.04261062    -0.05924717     1.30282386    -0.00014999    -0.00004625     0.00093913
H         0.87748269     0.01312171    -0.52525126     0.00013937     0.00013206    -0.00015830
H         0.84111648    -0.08766534     1.85805616     0.00156575    -0.00003800     0.00075496
H        -0.93362773    -0.02786170     1.79381233     0.00044131     0.00005096    -0.00082827
H        -0.98976989     0.13340268    -0.51691811    -0.00083273     0.00018202    -0.00020246
     6
  Step:     8            Position(A)                                  Velocity(au)
C        -0.03458976     0.01042924     0.00878470     0.00005125     0.00002616    -0.00115131
N        -0.04341473    -0.05953240     1.30826083    -0.00013826    -0.00005606     0.00101798
H         0.87867935     0.01396230    -0.52631543     0.00028996     0.00016849    -0.00022682
H         0.84960811    -0.08776813     1.86216177     0.00148500    -0.00000201     0.00072079
H        -0.93140921    -0.02746586     1.78947839     0.00034614     0.00008956    -0.00072679
H        -0.99433792     0.13450267    -0.51801821    -0.00081048     0.00021126    -0.00019435
     6
  Step:     9            Position(A)                                  Velocity(au)
C        -0.03434370     0.01057390     0.00216670     0.00003712     0.00002595    -0.00122054
N        -0.04414273    -0.05986833     1.31410416    -0.00012167    -0.00006405     0.00107622
H         0.88069580     0.01498876    -0.52776466     0.00043133     0.00019796    -0.00029403
H         0.85757187    -0.08768760     1.86604325     0.00136562     0.00002846     0.00066936
H        -0.92979213    -0.02686934     1.78575876     0.00022324     0.00012286    -0.00060252
H        -0.99875088     0.13574362    -0.51907175    -0.00077168     0.00023164    -0.00018452
     6
  Step:    10            Position(A)                                  Velocity(au)
C        -0.03417664     0.01071804    -0.00480010     0.00002280     0.00002564    -0.00126539
N        -0.04476899    -0.06024533     1.32023942    -0.00010110    -0.00007026     0.00111298
H         0.88348019     0.01616566    -0.52958800     0.00056040     0.00022112    -0.00035747
H         0.86480775    -0.08745135     1.86961193     0.00121495     0.00005397     0.00060425
H        -0.92892446    -0.02609837     1.78277227     0.00007807     0.00015139    -0.00046078
H        -1.00292691     0.13708090    -0.52007198    -0.00072014     0.00024438    -0.00017402
     6
  Step:    11            Position(A)                                  Velocity(au)
C        -0.03408881     0.01086062    -0.01198202     0.00000884     0.00002511    -0.00128720
N        -0.04527319    -0.06065396     1.32654877    -0.00007774    -0.00007482     0.00112948
H         0.88696185     0.01746118    -0.53176167     0.00067451     0.00023888    -0.00041538
H         0.87115665    -0.08708412     1.87279953     0.00104216     0.00007510     0.00052999
H        -0.92891925    -0.02517656     1.78060665    -0.00008186     0.00017576    -0.00030819
H        -1.00680295     0.13847611    -0.52101756    -0.00065987     0.00025086    -0.00016383
     6
  Step:    12            Position(A)                                  Velocity(au)
C        -0.03407739     0.01099999    -0.01925385    -0.00000427     0.00002431    -0.00128971
N        -0.04564193    -0.06108552     1.33292219    -0.00005292    -0.00007799     0.00112906
H         0.89105418     0.01884797    -0.53425225     0.00077220     0.00025237    -0.00046677
H         0.87651006    -0.08660802     1.87556306     0.00085719     0.00009248     0.00045153
H        -0.92984363    -0.02412477     1.77931166    -0.00024821     0.00019669    -0.00015167
H        -1.01033644     0.13989778    -0.52191164    -0.00059499     0.00025263    -0.00015473
     6
  Step:    13            Position(A)                                  Velocity(au)
C        -0.03413688     0.01113447    -0.02651185    -0.00001617     0.00002327    -0.00127836
N        -0.04586938    -0.06153262     1.33926874    -0.00002787    -0.00008012     0.00111652
H         0.89566150     0.02030434    -0.53702028     0.00085354     0.00026289    -0.00051134
H         0.88081377    -0.08604222     1.87788647     0.00066924     0.00010682     0.00037348
H        -0.93171558    -0.02296062     1.77889790    -0.00041337     0.00021504     0.00000273
H        -1.01350610     0.14132225    -0.52276076    -0.00052943     0.00025132    -0.00014746
     6
  Step:    14            Position(A)                                  Velocity(au)
C        -0.03425992     0.01126263    -0.03368247    -0.00002669     0.00002206    -0.00125890
N        -0.04595650    -0.06198978     1.34552414    -0.00000357    -0.00008157     0.00109692
H         0.90068790     0.02181512    -0.54002366     0.00091987     0.00027173    -0.00054954
H         0.88406358    -0.08540241     1.87977841     0.00048542     0.00011886     0.00029944
H        -0.93450921    -0.02169765     1.77934245    -0.00057128     0.00023169     0.00015067
H        -1.01631198     0.14273437    -0.52357602    -0.00046641     0.00024845    -0.00014277
     6
  Step:    15            Position(A)                                  Velocity(au)
C        -0.03443822     0.01138345    -0.04072364    -0.00005600     0.00003243    -0.00193468
N        -0.04590963    -0.06245346     1.35165199     0.00003023    -0.00012939     0.00168174
H         0.90604595     0.02337191    -0.54322404     0.00152303     0.00043824    -0.00091140
H         0.88629376    -0.08470045     1.88126687     0.00048583     0.00020237     0.00036289
H        -0.93816483    -0.02034507     1.78059886    -0.00112301     0.00038722     0.00045322
H        -1.01877139     0.14412698    -0.52437253    -0.00063866     0.00038381    -0.00022101
     6
  Step:    16            Position(A)                                  Velocity(au)
C        -0.03476303     0.01154778    -0.05117382    -0.00005759     0.00002541    -0.00174837
N        -0.04568180    -0.06315965     1.36077595     0.00004862    -0.00011945     0.00153323
H         0.91488983     0.02579936    -0.54874882     0.00157978     0.00041769    -0.00102429
H         0.88856295    -0.08357244     1.88313600     0.00032060     0.00019503     0.00030047
H        -0.94485482    -0.01822491     1.78354589    -0.00121953     0.00036020     0.00057549
H        -1.02249033     0.14630665    -0.52592930    -0.00067016     0.00038426    -0.00032429
     6
  Step:    17            Position(A)                                  Velocity(au)
C        -0.03509241     0.01167203    -0.06058259    -0.00005770     0.00001840    -0.00156978
N        -0.04535743    -0.06381024     1.36906718     0.00006409    -0.00010990     0.00139009
H         0.92398990     0.02811630    -0.55485853     0.00161369     0.00039936    -0.00111806
H         0.88993532    -0.08248516     1.88467978     0.00017076     0.00018817     0.00024849
H        -0.95201693    -0.01625370     1.78713563    -0.00128834     0.00033470     0.00067928
H        -1.02638346     0.14849161    -0.52805601    -0.00069914     0.00038571    -0.00042142
     6
  Step:    18            Position(A)                                  Velocity(au)
C        -0.03541824     0.01175676    -0.06899839    -0.00003013     0.00000616    -0.00074706
N        -0.04495408    -0.06440755     1.37656020     0.00004076    -0.00005376     0.00066878
H         0.93321298     0.03033403    -0.56144422     0.00086664     0.00020427    -0.00063658
H         0.89050187    -0.08143579     1.88595754     0.00001987     0.00009701     0.00011037
H        -0.95948367    -0.01442443     1.79125904    -0.00070800     0.00016551     0.00040753
H        -1.03042900     0.15068627    -0.53071443    -0.00038591     0.00020689    -0.00027293
     6
  Step:    19            Position(A)                                  Velocity(au)
C        -0.03559702     0.01178778    -0.07315742    -0.00003301     0.00000489    -0.00073381
N        -0.04468385    -0.06471343     1.38027208     0.00005431    -0.00005507     0.00065290
H         0.93803679     0.03151396    -0.56501309     0.00084551     0.00021562    -0.00063174
H         0.89022658    -0.08086603     1.88647377    -0.00011148     0.00010555     0.00007672
H        -0.96365226    -0.01344568     1.79382039    -0.00076658     0.00018231     0.00049862
H        -1.03243397     0.15183884    -0.53224563    -0.00032880     0.00020351    -0.00027250
     6
  Step:    20            Position(A)                                  Velocity(au)
C        -0.03578892     0.01181163    -0.07723745    -0.00003510     0.00000364    -0.00072460
N        -0.04434429    -0.06502583     1.38389086     0.00006584    -0.00005653     0.00064066
H         0.94270626     0.03275493    -0.56853732     0.00081859     0.00022780    -0.00062580
H         0.88925024    -0.08025064     1.88681897    -0.00023063     0.00011417     0.00005026
H        -0.96809068    -0.01237748     1.79685749    -0.00080975     0.00019888     0.00058123
H        -1.03412072     0.15297126    -0.53377398    -0.00027502     0.00020133    -0.00027416
     6
  Step:    21            Position(A)                                  Velocity(au)
C        -0.03598951     0.01182846    -0.08126113    -0.00003631     0.00000239    -0.00071699
N        -0.04394747    -0.06534561     1.38743700     0.00007504    -0.00005798     0.00062986
H         0.94719158     0.03406155    -0.57201188     0.00078382     0.00024020    -0.00061708
H         0.88764734    -0.07958920     1.88703587    -0.00033613     0.00012260     0.00003138
H        -0.97270828    -0.01122148     1.80032068    -0.00083414     0.00021466     0.00065384
H        -1.03550974     0.15409047    -0.53531173    -0.00022367     0.00019975    -0.00027723
     6
  Step:    22            Position(A)                                  Velocity(au)
C        -0.03619404     0.01183828    -0.08523757    -0.00003662     0.00000113    -0.00070951
N        -0.04350704    -0.06567272     1.39091879     0.00008162    -0.00005931     0.00061920
H         0.95145208     0.03543503    -0.57542260     0.00074048     0.00025241    -0.00060474
H         0.88549976    -0.07888268     1.88716907    -0.00042610     0.00013068     0.00002064
H        -0.97739793    -0.00998232     1.80415293    -0.00083769     0.00022926     0.00071532
H        -1.03661642     0.15520010    -0.53686727    -0.00017455     0.00019845    -0.00028134
     6
  Step:    23            Position(A)                                  Velocity(au)
C        -0.03639764     0.01184100    -0.08916785    -0.00003605    -0.00000016    -0.00070136
N        -0.04303787    -0.06600655     1.39433733     0.00008543    -0.00006047     0.00060797
H         0.95544337     0.03687435    -0.57875098     0.00068870     0.00026417    -0.00058856
H         0.88289892    -0.07813295     1.88726592    -0.00049875     0.00013830     0.00001861
H        -0.98204342    -0.00866669     1.80829204    -0.00081967     0.00024242     0.00076506
H        -1.03745491     0.15630197    -0.53844692    -0.00012784     0.00019726    -0.00028632
     6
  Step:    24            Position(A)                                  Velocity(au)
C        -0.03659556     0.01183654    -0.09304857    -0.00003463    -0.00000146    -0.00069211
N        -0.04255561    -0.06634615     1.39768975     0.00008639    -0.00006142     0.00059579
H         0.95912205     0.03837708    -0.58197734     0.00062918     0.00027533    -0.00056869
H         0.87994517    -0.07734245     1.88737632    -0.00055265     0.00014542     0.00002567
H        -0.98652651    -0.00728254     1.81267340    -0.00078043     0.00025402     0.00080299
H        -1.03804020     0.15739698    -0.54005599    -0.00008389     0.00019612    -0.00029212
     6
  Step:    25            Position(A)                                  Velocity(au)
C        -0.03678326     0.01182479    -0.09687403    -0.00003242    -0.00000277    -0.00068161
N        -0.04207603    -0.06669043     1.40097108     0.00008452    -0.00006216     0.00058252
H         0.96244891     0.03993999    -0.58508297     0.00056304     0.00028583    -0.00054554
H         0.87674558    -0.07651382     1.88755173    -0.00058688     0.00015203     0.00004200
H        -0.99073293    -0.00583839     1.81723273    -0.00072128     0.00026403     0.00082945
H        -1.03838897     0.15848560    -0.54169942    -0.00004308     0.00019501    -0.00029873
     6
  Step:    26            Position(A)                                  Velocity(au)
C        -0.03695657     0.01180566    -0.10063765    -0.00002951    -0.00000411    -0.00066986
N        -0.04161453    -0.06703827     1.40417556     0.00007996    -0.00006271     0.00056815
H         0.96539094     0.04155949    -0.58805145     0.00049158     0.00029565    -0.00051967
H         0.87341088    -0.07564977     1.88784393    -0.00060115     0.00015815     0.00006751
H        -0.99455729    -0.00434279     1.82190846    -0.00064425     0.00027254     0.00084517
H        -1.03851986     0.15956825    -0.54338210    -0.00000577     0.00019397    -0.00030621
     6
  Step:    27            Position(A)                                  Velocity(au)
C        -0.03711183     0.01177907    -0.10433280    -0.00002598    -0.00000545    -0.00065695
N        -0.04118565    -0.06738864     1.40729738     0.00007291    -0.00006307     0.00055278
H         0.96792251     0.04323201    -0.59086944     0.00041621     0.00030485    -0.00049171
H         0.87005192    -0.07475285     1.88830345    -0.00059579     0.00016383     0.00010185
H        -0.99790651    -0.00280375     1.82664356    -0.00055181     0.00027967     0.00085117
H        -1.03845325     0.16064541    -0.54510906     0.00002774     0.00019302    -0.00031461
     6
  Step:    28            Position(A)                                  Velocity(au)
C        -0.03724588     0.01174495    -0.10795341    -0.00002194    -0.00000681    -0.00064304
N        -0.04080259    -0.06774057     1.41033121     0.00006364    -0.00006328     0.00053653
H         0.97002582     0.04495425    -0.59352712     0.00033839     0.00031351    -0.00046233
H         0.86677618    -0.07382537     1.88897812    -0.00057178     0.00016912     0.00014439
H        -1.00070220    -0.00122844     1.83138695    -0.00044679     0.00028563     0.00084863
H        -1.03821094     0.16171766    -0.54688552     0.00005726     0.00019219    -0.00032396
     6
  Step:    29            Position(A)                                  Velocity(au)
C        -0.03735617     0.01170325    -0.11149416    -0.00001750    -0.00000818    -0.00062830
N        -0.04047692    -0.06809332     1.41327251     0.00005247    -0.00006337     0.00051958
H         0.97169101     0.04672343    -0.59601830     0.00025951     0.00032174    -0.00043219
H         0.86368418    -0.07286937     1.88991151    -0.00053068     0.00017409     0.00019424
H        -1.00288225     0.00037719     1.83609445    -0.00033216     0.00029066     0.00083887
H        -1.03781558     0.16278573    -0.54871687     0.00008268     0.00019150    -0.00033431
     6
  Step:    30            Position(A)                                  Velocity(au)
C        -0.03744076     0.01165390    -0.11495073    -0.00001276    -0.00000955    -0.00061291
N        -0.04021822    -0.06844627     1.41611768     0.00003978    -0.00006337     0.00050211
H         0.97291589     0.04853742    -0.59834034     0.00018089     0.00032969    -0.00040190
H         0.86086608    -0.07188661     1.89114139    -0.00047462     0.00017876     0.00025025
H        -1.00440144     0.00200863     1.84072931    -0.00021095     0.00029506     0.00082325
H        -1.03729018     0.16385038    -0.55060864     0.00010398     0.00019096    -0.00034567
     6
  Step:    31            Position(A)                                  Velocity(au)
C        -0.03749832     0.01159687    -0.11831973    -0.00000785    -0.00001094    -0.00059703
N        -0.04003393    -0.06879904     1.41886418     0.00002596    -0.00006333     0.00048431
H         0.97370549     0.05039493    -0.60049395     0.00010378     0.00033751    -0.00037203
H         0.85839871    -0.07087865     1.89269838    -0.00040619     0.00018317     0.00031105
H        -1.00523141     0.00366305     1.84526241    -0.00008611     0.00029913     0.00080313
H        -1.03665760     0.16491229    -0.55256640     0.00012125     0.00019053    -0.00035806
     6
  Step:    32            Position(A)                                  Velocity(au)
C        -0.03752815     0.01153210    -0.12159866    -0.00000286    -0.00001233    -0.00058080
N        -0.03992915    -0.06915140     1.42151047     0.00001144    -0.00006326     0.00046635
H         0.97407149     0.05229562    -0.60248285     0.00002930     0.00034540    -0.00034309
H         0.85634323    -0.06984699     1.89460489    -0.00032833     0.00018731     0.00037510
H        -1.00536023     0.00533942     1.84967215     0.00003951     0.00030321     0.00077983
H        -1.03594008     0.16597193    -0.55459566     0.00013462     0.00019016    -0.00037146
     6
  Step:    33            Position(A)                                  Velocity(au)
C        -0.03753014     0.01145955    -0.12478577     0.00000210    -0.00001374    -0.00056433
N        -0.03990659    -0.06950332     1.42405596    -0.00000337    -0.00006321     0.00044836
H         0.97403173     0.05424018    -0.60431354    -0.00004150     0.00035353    -0.00031554
H         0.85474345    -0.06879331     1.89687436    -0.00024423     0.00019112     0.00044077
H        -1.00479156     0.00703870     1.85394416     0.00016320     0.00030768     0.00075458
H        -1.03515888     0.16702934    -0.55670180     0.00014431     0.00018975    -0.00038582
     6
  Step:    34            Position(A)                                  Velocity(au)
C        -0.03750482     0.01137916    -0.12787977     0.00000691    -0.00001516    -0.00054764
N        -0.03996660    -0.06985491     1.42650081    -0.00001802    -0.00006319     0.00043045
H         0.97360960     0.05623055    -0.60599488    -0.00010767     0.00036217    -0.00028977
H         0.85362486    -0.06771977     1.89951075    -0.00015720     0.00019447     0.00050633
H        -1.00354373     0.00876402     1.85807085     0.00028245     0.00031294     0.00072855
H        -1.03433390     0.16808390    -0.55888995     0.00015056     0.00018914    -0.00040110
     6
  Step:    35            Position(A)                                  Velocity(au)
C        -0.03745329     0.01129085    -0.13087952     0.00001147    -0.00001660    -0.00053076
N        -0.04010714    -0.07020640     1.42884570    -0.00003212    -0.00006322     0.00041270
H         0.97283362     0.05827011    -0.60753783    -0.00016833     0.00037159    -0.00026611
H         0.85299424    -0.06662940     1.90250837    -0.00007054     0.00019715     0.00057006
H        -1.00164869     0.01052091     1.86205095     0.00039490     0.00031947     0.00070283
H        -1.03348351     0.16913394    -0.56116499     0.00015369     0.00018810    -0.00041727
     6
  Step:    36            Position(A)                                  Velocity(au)
C        -0.03737728     0.01119453    -0.13378394     0.00001566    -0.00001806    -0.00051367
N        -0.04032389    -0.07055815     1.43109169    -0.00004526    -0.00006332     0.00039516
H         0.97173707     0.06036406    -0.60895508    -0.00022265     0.00038218    -0.00024486
H         0.85284014    -0.06552670     1.90585210     0.00001256     0.00019880     0.00063033
H        -0.99915094     0.01231774     1.86588903     0.00049839     0.00032782     0.00067838
H        -1.03262427     0.17017632    -0.56353158     0.00015400     0.00018629    -0.00043428
     6
  Step:    37            Position(A)                                  Velocity(au)
C        -0.03727912     0.01109006    -0.13659172     0.00001938    -0.00001954    -0.00049632
N        -0.04061044    -0.07091057     1.43324006    -0.00005707    -0.00006351     0.00037786
H         0.97035771     0.06252015    -0.61026080    -0.00026978     0.00039453    -0.00022626
H         0.85313394    -0.06441861     1.90951795     0.00008918     0.00019886     0.00068563
H        -0.99610641     0.01416642     1.86959488     0.00059097     0.00033877     0.00065610
H        -1.03177094     0.17120562    -0.56599439     0.00015181     0.00018319    -0.00045221
     6
  Step:    38            Position(A)                                  Velocity(au)
C        -0.03716185     0.01097730    -0.13930143     0.00002248    -0.00002106    -0.00047863
N        -0.04095837    -0.07126413     1.43529231    -0.00006722    -0.00006378     0.00036080
H         0.96873792     0.06475001    -0.61147044    -0.00030883     0.00040958    -0.00021056
H         0.85383159    -0.06331604     1.91347415     0.00015673     0.00019628     0.00073467
H        -0.99258117     0.01608380     1.87318286     0.00067092     0.00035346     0.00063674
H        -1.03093656     0.17221285    -0.56855871     0.00014738     0.00017790    -0.00047129
     6
  Step:    39            Position(A)                                  Velocity(au)
C        -0.03702932     0.01085601    -0.14191090     0.00002477    -0.00002265    -0.00046024
N        -0.04135743    -0.07161934     1.43724975    -0.00007535    -0.00006412     0.00034378
H         0.96692556     0.06707202    -0.61260087    -0.00033844     0.00042926    -0.00019814
H         0.85487572    -0.06223731     1.91768267     0.00021299     0.00018897     0.00077655
H        -0.98865017     0.01809462     1.87667121     0.00073673     0.00037401     0.00062089
H        -1.03013305     0.17318268    -0.57123205     0.00014068     0.00016867    -0.00049238
     6
  Step:    40            Position(A)                                  Velocity(au)
C        -0.03688666     0.01072568    -0.14441468     0.00002588    -0.00002445    -0.00043945
N        -0.04179553    -0.07197650     1.43911171    -0.00008107    -0.00006443     0.00032569
H         0.96497786     0.06951902    -0.61367181    -0.00035512     0.00045847    -0.00019059
H         0.85619786    -0.06121660     1.92210162     0.00025611     0.00017148     0.00081106
H        -0.98439609     0.02023904     1.88008097     0.00078694     0.00040536     0.00060896
H        -1.02937361     0.17408677    -0.57402908     0.00013025     0.00015130    -0.00051882
     6
  Step:    41            Position(A)                                  Velocity(au)
C        -0.03674187     0.01058448    -0.14679165     0.00002498    -0.00002755    -0.00040349
N        -0.04225785    -0.07233489     1.44086701    -0.00008362    -0.00006381     0.00029788
H         0.96298142     0.07216404    -0.61471766    -0.00034014     0.00051000    -0.00020358
H         0.85772021    -0.06033276     1.92669077     0.00028532     0.00012929     0.00084062
H        -0.97990999     0.02259673     1.88343463     0.00081822     0.00045691     0.00060203
H        -1.02868647     0.17486310    -0.57699434     0.00010094     0.00011883    -0.00057057
     6
  Step:    42            Position(A)                                  Velocity(au)
C        -0.03660934     0.01041982    -0.14889461     0.00002347    -0.00003354    -0.00033459
N        -0.04272392    -0.07268499     1.44241910    -0.00008372    -0.00006099     0.00024826
H         0.96120126     0.07518145    -0.61593216    -0.00027602     0.00056536    -0.00026680
H         0.85936572    -0.05978113     1.93143493     0.00030434     0.00008198     0.00086595
H        -0.97531149     0.02531205     1.88676528     0.00082707     0.00050069     0.00060478
H        -1.02825289     0.17540614    -0.58036403     0.00002830     0.00009916    -0.00066682
     6
  Step:    43            Position(A)                                  Velocity(au)
C        -0.03648135     0.01021229    -0.15050512     0.00002319    -0.00004143    -0.00024492
N        -0.04318703    -0.07301181     1.44362231    -0.00008271    -0.00005677     0.00018495
H         0.95991802     0.07843872    -0.61767876    -0.00018569     0.00059905    -0.00036792
H         0.86109795    -0.05942292     1.93630166     0.00031427     0.00005822     0.00088270
H        -0.97073063     0.02815370     1.89014682     0.00081710     0.00051234     0.00061799
H        -1.02837243     0.17596363    -0.58439515    -0.00007269     0.00011299    -0.00078452
     6
  Step:    44            Position(A)                                  Velocity(au)
C        -0.03635204     0.00996017    -0.15161159     0.00002361    -0.00004944    -0.00015530
N        -0.04364147    -0.07331475     1.44447088    -0.00008052    -0.00005258     0.00012201
H         0.95914130     0.08182702    -0.62001371    -0.00009664     0.00061837    -0.00047435
H         0.86285204    -0.05913528     1.94122714     0.00031170     0.00005092     0.00088802
H        -0.96624700     0.03099571     1.89362096     0.00079401     0.00050803     0.00063766
H        -1.02905923     0.17665964    -0.58906710    -0.00017154     0.00014253    -0.00089633
     6