     6
  Step:   120            Position(A)                                  Velocity(au)
C        -0.03897361    -0.03654052     0.00256692     0.00013217    -0.00000763     0.00031917
N        -0.05181068    -0.09279925     1.32007222    -0.00008482     0.00011648    -0.00031270
H         0.73841074     0.67046924    -0.44540051    -0.00081483     0.00087831     0.00040716
H         0.79223410    -0.30738174     1.89527297    -0.00036628    -0.00162423    -0.00041617
H        -0.64887678     0.66223004     1.77170045     0.00080781     0.00060888     0.00006895
H        -0.91030740     0.02990537    -0.70431417    -0.00002300    -0.00139073     0.00048214
