     6
  Step:     0            Position(A)                                  Velocity(au)
C        -0.04154246     0.01611421     0.03768857    -0.00011383    -0.00009238    -0.00007087
N        -0.03696563    -0.06532208     1.28215290     0.00012831     0.00004592     0.00009705
H         0.92682153    -0.02821385    -0.53335350     0.00037475     0.00019546     0.00007860
H         0.80994655    -0.08328158     1.85044850    -0.00065466    -0.00000138    -0.00098628
H        -0.95767758     0.05417326     1.84268551    -0.00085404    -0.00022099     0.00037807
H        -0.98331874     0.10326544    -0.53408598     0.00070735     0.00048964     0.00002542
     6
  Step:     1            Position(A)                                  Velocity(au)
C        -0.04214192     0.01561906     0.03686606    -0.00010467    -0.00008909    -0.00022934
N        -0.03631848    -0.06510938     1.28305909     0.00010686     0.00003195     0.00023347
H         0.92892119    -0.02704930    -0.53278448     0.00038872     0.00023151     0.00013055
H         0.80666379    -0.08316024     1.84510299    -0.00053232     0.00004658    -0.00095837
H        -0.96196440     0.05302874     1.84447858    -0.00070624    -0.00019793     0.00027483
H        -0.97969855     0.10606881    -0.53389445     0.00061210     0.00053755     0.00004141
     6
  Step:     2            Position(A)                                  Velocity(au)
C        -0.04268720     0.01513979     0.03518024    -0.00009417    -0.00008669    -0.00038609
N        -0.03579688    -0.06497265     1.28470639     0.00008261     0.00001810     0.00036758
H         0.93107300    -0.02568185    -0.53192568     0.00039365     0.00027013     0.00018394
H         0.80412451    -0.08277208     1.83996667    -0.00038368     0.00009666    -0.00090994
H        -0.96540182     0.05200847     1.84569142    -0.00054532    -0.00017502     0.00016757
H        -0.97662410     0.10914468    -0.53363309     0.00050960     0.00058980     0.00005106
     6
  Step:     3            Position(A)                                  Velocity(au)
C        -0.04317174     0.01467099     0.03264385    -0.00008257    -0.00008528    -0.00053974
N        -0.03541512    -0.06491144     1.28707886     0.00005593     0.00000432     0.00049804
H         0.93322602    -0.02409519    -0.53077290     0.00038874     0.00031171     0.00023720
H         0.80246799    -0.08210316     1.83515206    -0.00021080     0.00014938    -0.00084067
H        -0.96792785     0.05111476     1.84631107    -0.00037448    -0.00015126     0.00005950
H        -0.97412565     0.11251879    -0.53333608     0.00040324     0.00064643     0.00005455
     6
  Step:     4            Position(A)                                  Velocity(au)
C        -0.04359034     0.01420700     0.02927663    -0.00007013    -0.00008478    -0.00068856
N        -0.03518509    -0.06492543     1.29015389     0.00002737    -0.00000934     0.00062329
H         0.93532499    -0.02227238    -0.52933121     0.00037325     0.00035577     0.00028836
H         0.80181876    -0.08113813     1.83077154    -0.00001738     0.00020437    -0.00075093
H        -0.96949788     0.05035398     1.84634222    -0.00019721    -0.00012631    -0.00004599
H        -0.97221357     0.11621521    -0.53303645     0.00029670     0.00070628     0.00005205
     6
  Step:     5            Position(A)                                  Velocity(au)
C        -0.04393928     0.01374302     0.02510751    -0.00005711    -0.00008494    -0.00083016
N        -0.03511558    -0.06501365     1.29390075    -0.00000239    -0.00002265     0.00074127
H         0.93731127    -0.02020128    -0.52761681     0.00034699     0.00040073     0.00033518
H         0.80227775    -0.07986628     1.82693308     0.00019113     0.00026003    -0.00064223
H        -0.97008628     0.04973231     1.84580769    -0.00001758    -0.00010062    -0.00014543
H        -0.97087823     0.12024908    -0.53276637     0.00019328     0.00076684     0.00004367
     6
  Step:     6            Position(A)                                  Velocity(au)
C        -0.04421621     0.01327609     0.02017897    -0.00004377    -0.00008537    -0.00096119
N        -0.03521132    -0.06517362     1.29827745    -0.00003246    -0.00003524     0.00084927
H         0.93912769    -0.01788084    -0.52565803     0.00031101     0.00044410     0.00037536
H         0.80391333    -0.07828848     1.82373337     0.00040755     0.00031376    -0.00051761
H        -0.96969050     0.04925128     1.84474844     0.00015930    -0.00007523    -0.00023538
H        -0.97009547     0.12461898    -0.53255782     0.00009487     0.00082451     0.00002947
     6
  Step:     7            Position(A)                                  Velocity(au)
C        -0.04441996     0.01280551     0.01455266    -0.00003035    -0.00008570    -0.00107747
N        -0.03547203    -0.06540067     1.30322658    -0.00006176    -0.00004672     0.00094392
H         0.94072644    -0.01532460    -0.52349497     0.00026777     0.00048320     0.00040679
H         0.80675311    -0.07642089     1.82124916     0.00062321     0.00036281    -0.00038180
H        -0.96833705     0.04890620     1.84322294     0.00032717    -0.00005109    -0.00031252
H        -0.96983643     0.12930309    -0.53244276     0.00000186     0.00087557     0.00000957
     6
  Step:     8            Position(A)                                  Velocity(au)
C        -0.04455043     0.01233237     0.00831367    -0.00001709    -0.00008565    -0.00117452
N        -0.03589149    -0.06568813     1.30867211    -0.00008909    -0.00005675     0.00102171
H         0.94207638    -0.01255973    -0.52117835     0.00022076     0.00051582     0.00042767
H         0.81077627    -0.07429311     1.81952895     0.00082823     0.00040506    -0.00024082
H        -0.96608767     0.04868864     1.84130693     0.00047893    -0.00002857    -0.00037362
H        -0.97007498     0.13426097    -0.53245239    -0.00008613     0.00091696    -0.00001562
     6
  Step:     9            Position(A)                                  Velocity(au)
C        -0.04460886     0.01185883     0.00157094    -0.00000431    -0.00008510    -0.00124848
N        -0.03645678    -0.06602790     1.31451928    -0.00011318    -0.00006512     0.00107962
H         0.94316644    -0.00962331    -0.51876806     0.00017378     0.00054057     0.00043662
H         0.81590738    -0.07194386     1.81858740     0.00101227     0.00043922    -0.00010141
H        -0.96304348     0.04859038     1.83909342     0.00060724    -0.00000742    -0.00041570
H        -0.97078843     0.13943804    -0.53261541    -0.00016919     0.00094664    -0.00004535
     6
  Step:    10            Position(A)                                  Velocity(au)
C        -0.04459825     0.01138759    -0.00554680     0.00000763    -0.00008402    -0.00129700
N        -0.03714795    -0.06641106     1.32065789    -0.00013283    -0.00007176     0.00111592
H         0.94400570    -0.00655835    -0.51633101     0.00013041     0.00055693     0.00043298
H         0.82201432    -0.06941693     1.81840309     0.00116579     0.00046482     0.00002983
H        -0.95934615     0.04860627     1.83669185     0.00070543     0.00001299    -0.00043643
H        -0.97195332     0.14477040    -0.53295583    -0.00024667     0.00096372    -0.00007844
     6
  Step:    11            Position(A)                                  Velocity(au)
C        -0.04452373     0.01092141    -0.01289933     0.00001835    -0.00008249    -0.00132008
N        -0.03793872    -0.06682849     1.32696922    -0.00014720    -0.00007674     0.00113079
H         0.94462140    -0.00340985    -0.51393746     0.00009363     0.00056529     0.00041698
H         0.82891380    -0.06675803     1.81892015     0.00128186     0.00048212     0.00014727
H        -0.95517320     0.04873534     1.83422430     0.00076879     0.00003339    -0.00043468
H        -0.97354043     0.15018994    -0.53349053    -0.00031739     0.00096863    -0.00011341
     6
  Step:    12            Position(A)                                  Velocity(au)
C        -0.04439253     0.01046270    -0.02034772     0.00002755    -0.00008067    -0.00132057
N        -0.03879833    -0.06727150     1.33333653    -0.00015593    -0.00008029     0.00112681
H         0.94505550    -0.00022028    -0.51165573     0.00006561     0.00056706     0.00038996
H         0.83638671    -0.06401135     1.82005430     0.00135764     0.00049221     0.00024715
H        -0.95072639     0.04898060     1.83181809     0.00079561     0.00005446    -0.00041101
H        -0.97551193     0.15563086    -0.53422736    -0.00038026     0.00096333    -0.00014870
     6
  Step:    13            Position(A)                                  Velocity(au)
C        -0.04421349     0.01001305    -0.02776992     0.00003509    -0.00007880    -0.00130393
N        -0.03969459    -0.06773265     1.33965792    -0.00015926    -0.00008279     0.00110865
H         0.94536020     0.00297562    -0.50954619     0.00004759     0.00056453     0.00035410
H         0.84420174    -0.06121535     1.82170318     0.00139499     0.00049696     0.00032806
H        -0.94621410     0.04934857     1.82959607     0.00078744     0.00007688    -0.00036747
H        -0.97782241     0.16103769    -0.53516496    -0.00043494     0.00095114    -0.00018320
     6
  Step:    14            Position(A)                                  Velocity(au)
C        -0.04399626     0.00957275    -0.03507420     0.00006258    -0.00011789    -0.00195057
N        -0.04059700    -0.06820653     1.34585752    -0.00024113    -0.00012937     0.00165289
H         0.94559298     0.00615547    -0.50765658     0.00006110     0.00085613     0.00047631
H         0.85214153    -0.05839870     1.82375935     0.00213764     0.00076173     0.00059713
H        -0.94183309     0.04984891     1.82766793     0.00114287     0.00015484    -0.00046887
H        -0.98042409     0.16637290    -0.53629638    -0.00073637     0.00142996    -0.00033070
     6
  Step:    15            Position(A)                                  Velocity(au)
C        -0.04364260     0.00891276    -0.04562717     0.00006084    -0.00011418    -0.00175330
N        -0.04192909    -0.06891266     1.35483105    -0.00022364    -0.00011869     0.00149609
H         0.94622766     0.01086383    -0.50545510     0.00016486     0.00079825     0.00029827
H         0.86408154    -0.05421800     1.82730267     0.00203292     0.00070695     0.00063362
H        -0.93565129     0.05069638     1.82527825     0.00100731     0.00014561    -0.00035908
H        -0.98488339     0.17431380    -0.53860147    -0.00082222     0.00135914    -0.00047059
     6
  Step:    16            Position(A)                                  Velocity(au)
C        -0.04330232     0.00827039    -0.05507295     0.00003373    -0.00006495    -0.00091024
N        -0.04314790    -0.06956033     1.36292239    -0.00011750    -0.00006339     0.00078271
H         0.94747340     0.01526056    -0.50425442     0.00015889     0.00043469     0.00007367
H         0.87532969    -0.05033498     1.83098664     0.00110480     0.00038255     0.00037741
H        -0.93034338     0.05150973     1.82357212     0.00048881     0.00008298    -0.00013474
H        -0.98980260     0.18187575    -0.54166407    -0.00052164     0.00075475    -0.00034678
     6
  Step:    17            Position(A)                                  Velocity(au)
C        -0.04310743     0.00790363    -0.06014282     0.00003480    -0.00006519    -0.00088710
N        -0.04377264    -0.06992684     1.36726980    -0.00010296    -0.00006655     0.00075854
H         0.94841207     0.01773011    -0.50397265     0.00017593     0.00044147     0.00002608
H         0.88135521    -0.04816337     1.83317085     0.00102432     0.00038707     0.00039246
H        -0.92794364     0.05209490     1.82312381     0.00035560     0.00012535    -0.00002155
H        -0.99280728     0.18611315    -0.54368209    -0.00053970     0.00074770    -0.00036728
     6
  Step:    18            Position(A)                                  Velocity(au)
C        -0.04290997     0.00753546    -0.06507436     0.00003507    -0.00006616    -0.00087091
N        -0.04430875    -0.07031063     1.37147443    -0.00008733    -0.00007028     0.00074039
H         0.94945690     0.02023788    -0.50396042     0.00019823     0.00045322    -0.00002191
H         0.88687824    -0.04597108     1.83541140     0.00093834     0.00039424     0.00040259
H        -0.92633420     0.05292297     1.82332910     0.00021357     0.00017070     0.00009659
H        -0.99588731     0.19030553    -0.54580486    -0.00055445     0.00074688    -0.00038813
     6
  Step:    19            Position(A)                                  Velocity(au)
C        -0.04271423     0.00716191    -0.06990686     0.00003447    -0.00006755    -0.00085787
N        -0.04475173    -0.07071480     1.37557048    -0.00007054    -0.00007432     0.00072501
H         0.95063452     0.02281124    -0.50421824     0.00022437     0.00046810    -0.00007046
H         0.89187524    -0.04374347     1.83768438     0.00084396     0.00040247     0.00040755
H        -0.92554926     0.05400872     1.82420670     0.00006483     0.00021843     0.00021816
H        -0.99902342     0.19448663    -0.54803356    -0.00056362     0.00074879    -0.00040785
     6
  Step:    20            Position(A)                                  Velocity(au)
C        -0.04252487     0.00678074    -0.07465857     0.00003296    -0.00006914    -0.00084547
N        -0.04509684    -0.07114095     1.37957431    -0.00005282    -0.00007844     0.00071035
H         0.95196356     0.02546756    -0.50474756     0.00025293     0.00048481    -0.00011927
H         0.89630704    -0.04147463     1.83996463     0.00074036     0.00041064     0.00040746
H        -0.92560987     0.05536332     1.82576642    -0.00008649     0.00026762     0.00034047
H        -1.00218417     0.19867109    -0.55036134    -0.00056557     0.00075098    -0.00042526
     6
  Step:    21            Position(A)                                  Velocity(au)
C        -0.04234668     0.00639094    -0.07933394     0.00003058    -0.00007077    -0.00083225
N        -0.04534069    -0.07158946     1.38349093    -0.00003461    -0.00008248     0.00069525
H         0.95345469     0.02821695    -0.50554816     0.00028255     0.00050245    -0.00016780
H         0.90013041    -0.03916481     1.84222761     0.00062839     0.00041802     0.00040279
H        -0.92651358     0.05699268     1.82800302    -0.00023508     0.00031719     0.00046024
H        -1.00532957     0.20286020    -0.55277525    -0.00055934     0.00075190    -0.00043961
     6
  Step:    22            Position(A)                                  Velocity(au)
C        -0.04218422     0.00599235    -0.08392939     0.00002740    -0.00007234    -0.00081746
N        -0.04548234    -0.07205975     1.38731906    -0.00001644    -0.00008630     0.00067920
H         0.95511097     0.03106462    -0.50661673     0.00031192     0.00052043    -0.00021535
H         0.90330699    -0.03681811     1.84445151     0.00050994     0.00042421     0.00039433
H        -0.92822849     0.05889670     1.83089330    -0.00037520     0.00036607     0.00057407
H        -1.00841494     0.20704683    -0.55525840    -0.00054460     0.00075060    -0.00045049
     6
  Step:    23            Position(A)                                  Velocity(au)
C        -0.04204160     0.00558538    -0.08843712     0.00002352    -0.00007377    -0.00080080
N        -0.04552380    -0.07255053     1.39105438     0.00000110    -0.00008981     0.00066201
H         0.95692815     0.03401245    -0.50794624     0.00033980     0.00053836    -0.00026122
H         0.90580906    -0.03444083     1.84661878     0.00038752     0.00042902     0.00038302
H        -0.93069182     0.06106921     1.83439578    -0.00050135     0.00041320     0.00067875
H        -1.01139418     0.21121884    -0.55779184    -0.00052146     0.00074659    -0.00045773
     6
  Step:    24            Position(A)                                  Velocity(au)
C        -0.04192228     0.00517078    -0.09284761     0.00001909    -0.00007503    -0.00078222
N        -0.04547013    -0.07305997     1.39469163     0.00001746    -0.00009294     0.00064374
H         0.95889520     0.03706012    -0.50952583     0.00036506     0.00055596    -0.00030474
H         0.90762265    -0.03204026     1.84871706     0.00026390     0.00043240     0.00036991
H        -0.93381189     0.06349836     1.83845229    -0.00060869     0.00045764     0.00077154
H        -1.01422229     0.21536142    -0.56035594    -0.00049041     0.00073967    -0.00046137
     6
  Step:    25            Position(A)                                  Velocity(au)
C        -0.04182895     0.00474953    -0.09715110     0.00001425    -0.00007609    -0.00076188
N        -0.04532924    -0.07358591     1.39822567     0.00003218    -0.00009565     0.00062457
H         0.96099492     0.04020582    -0.51134108     0.00038670     0.00057307    -0.00034534
H         0.90874896    -0.02962390     1.85073962     0.00014194     0.00043441     0.00035608
H        -0.93747266     0.06616732     1.84299077    -0.00069343     0.00049861     0.00085032
H        -1.01685735     0.21945874    -0.56293152    -0.00045220     0.00072982    -0.00046163
     6
  Step:    26            Position(A)                                  Velocity(au)
C        -0.04176347     0.00432274    -0.10133856     0.00000916    -0.00007695    -0.00074003
N        -0.04511148    -0.07412594     1.40165222     0.00004486    -0.00009791     0.00060472
H         0.96320486     0.04344676    -0.51337448     0.00040390     0.00058960    -0.00038251
H         0.90920448    -0.02719886     1.85268546     0.00002434     0.00043521     0.00034256
H        -0.94153991     0.06905523     1.84792887    -0.00075299     0.00053554     0.00091367
H        -1.01926191     0.22349508    -0.56550065    -0.00040777     0.00071723    -0.00045882
     6
  Step:    27            Position(A)                                  Velocity(au)
C        -0.04172685     0.00389153    -0.10540228     0.00000396    -0.00007761    -0.00071698
N        -0.04482904    -0.07467757     1.40496811     0.00005523    -0.00009973     0.00058444
H         0.96549827     0.04677967    -0.51560597     0.00041600     0.00060552    -0.00041590
H         0.90902030    -0.02477144     1.85455913    -0.00008641     0.00043498     0.00033034
H        -0.94586828     0.07213842     1.85317798    -0.00078609     0.00056805     0.00096089
H        -1.02140394     0.22745568    -0.56804728    -0.00035819     0.00070214    -0.00045336
     6
  Step:    28            Position(A)                                  Velocity(au)
C        -0.04171931     0.00345700    -0.10933620    -0.00000121    -0.00007809    -0.00069306
N        -0.04449538    -0.07523835     1.40817142     0.00006312    -0.00010112     0.00056398
H         0.96784516     0.05020106    -0.51801367     0.00042256     0.00062085    -0.00044526
H         0.90824065    -0.02234685     1.85637034    -0.00018812     0.00043395     0.00032031
H        -0.95030841     0.07539161     1.85864720    -0.00079263     0.00059601     0.00099193
H        -1.02325743     0.23132726    -0.57055769    -0.00030458     0.00068490    -0.00044570
     6
  Step:    29            Position(A)                                  Velocity(au)
C        -0.04174032     0.00302019    -0.11313600    -0.00000622    -0.00007839    -0.00066860
N        -0.04412466    -0.07580596     1.41126143     0.00006847    -0.00010213     0.00054355
H         0.97021349     0.05370759    -0.52057456     0.00042332     0.00063566    -0.00047048
H         0.90692108    -0.01992908     1.85813340    -0.00027900     0.00043236     0.00031323
H        -0.95471314     0.07878916     1.86424678    -0.00077357     0.00061947     0.00100734
H        -1.02480268     0.23509837    -0.57302079    -0.00024806     0.00066586    -0.00043635
     6
  Step:    30            Position(A)                                  Velocity(au)
C        -0.04178874     0.00258200    -0.11679913    -0.00001098    -0.00007855    -0.00064391
N        -0.04373116    -0.07637830     1.41423850     0.00007129    -0.00010279     0.00052333
H         0.97257023     0.05729628    -0.52326513     0.00041821     0.00065005    -0.00049153
H         0.90512640    -0.01752084     1.85986664    -0.00035764     0.00043044     0.00030976
H        -0.95894296     0.08230612     1.86989113    -0.00073067     0.00063867     0.00100809
H        -1.02602624     0.23875959    -0.57542824    -0.00018972     0.00064539    -0.00042581
     6
  Step:    31            Position(A)                                  Velocity(au)
C        -0.04186286     0.00214321    -0.12032466    -0.00001539    -0.00007860    -0.00061927
N        -0.04332882    -0.07695356     1.41710389     0.00007168    -0.00010318     0.00050347
H         0.97488243     0.06096477    -0.52606197     0.00040734     0.00066417    -0.00050848
H         0.90292835    -0.01512365     1.86159158    -0.00042303     0.00042838     0.00031040
H        -0.96287034     0.08591928     1.87550112    -0.00066637     0.00065401     0.00099551
H        -1.02692074     0.24230347    -0.57777456    -0.00013061     0.00062382    -0.00041459
     6
  Step:    32            Position(A)                                  Velocity(au)
C        -0.04196060     0.00170447    -0.12371308    -0.00001941    -0.00007855    -0.00059488
N        -0.04293086    -0.07753024     1.41985958     0.00006981    -0.00010333     0.00048406
H         0.97711812     0.06471153    -0.52894220     0.00039096     0.00067818    -0.00052148
H         0.90040335    -0.01273808     1.86333218    -0.00047456     0.00042633     0.00031552
H        -0.96638275     0.08960798     1.88100574    -0.00058346     0.00066601     0.00097111
H        -1.02748443     0.24572441    -0.58005703    -0.00007166     0.00060146    -0.00040318
     6
  Step:    33            Position(A)                                  Velocity(au)
C        -0.04207961     0.00126625    -0.12696603    -0.00002300    -0.00007844    -0.00057091
N        -0.04254947    -0.07810717     1.42250802     0.00006587    -0.00010332     0.00046515
H         0.97924714     0.06853606    -0.53188388     0.00036943     0.00069229    -0.00053071
H         0.89763026    -0.01036404     1.86511405    -0.00051200     0.00042435     0.00032532
H        -0.96938421     0.09335473     1.88634281    -0.00048498     0.00067529     0.00093651
H        -1.02772072     0.24901831    -0.58227570    -0.00001372     0.00057853    -0.00039205
     6
  Step:    34            Position(A)                                  Velocity(au)
C        -0.04221736     0.00082888    -0.13008583    -0.00002614    -0.00007829    -0.00054742
N        -0.04219558    -0.07868352     1.42505180     0.00006011    -0.00010319     0.00044673
H         0.98124185     0.07243920    -0.53486618     0.00034326     0.00070679    -0.00053637
H         0.89468817    -0.00800131     1.86696360    -0.00053549     0.00042240     0.00033991
H        -0.97179630     0.09714586     1.89145949    -0.00037404     0.00068258     0.00089334
H        -1.02763760     0.25218220    -0.58443327     0.00004244     0.00055515    -0.00038169
     6
  Step:    35            Position(A)                                  Velocity(au)
C        -0.04237135     0.00039255    -0.13307504    -0.00002885    -0.00007813    -0.00052441
N        -0.04187862    -0.07925875     1.42749333     0.00005281    -0.00010300     0.00042872
H         0.98307779     0.07642355    -0.53786958     0.00031307     0.00072202    -0.00053869
H         0.89165439    -0.00565023     1.86890735    -0.00054550     0.00042027     0.00035924
H        -0.97355836     0.10097207     1.89631218    -0.00025376     0.00068872     0.00084320
H        -1.02724715     0.25521360    -0.58653520     0.00009614     0.00053133    -0.00037259
     6
  Step:    36            Position(A)                                  Velocity(au)
C        -0.04253924    -0.00004274    -0.13593611    -0.00003118    -0.00007799    -0.00050179
N        -0.04160643    -0.07983259     1.42983463     0.00004427    -0.00010279     0.00041103
H         0.98473446     0.08049410    -0.54087578     0.00027967     0.00073856    -0.00053787
H         0.88860256    -0.00331279     1.87097127    -0.00054284     0.00041750     0.00038317
H        -0.97462721     0.10482924     1.90086617    -0.00012718     0.00069475     0.00078757
H        -1.02656505     0.25810975    -0.58858991     0.00014679     0.00050689    -0.00036536
     6
  Step:    37            Position(A)                                  Velocity(au)
C        -0.04271909    -0.00047713    -0.13867079    -0.00003324    -0.00007789    -0.00047938
N        -0.04138498    -0.08040500     1.43207698     0.00003483    -0.00010259     0.00039348
H         0.98619655     0.08465964    -0.54386773     0.00024419     0.00075730    -0.00053414
H         0.88560082    -0.00099442     1.87318034    -0.00052863     0.00041317     0.00041155
H        -0.97497660     0.10871967     1.90509489     0.00000274     0.00070204     0.00072781
H        -1.02561026     0.26086622    -0.59060957     0.00019378     0.00048130    -0.00036084
     6
  Step:    38            Position(A)                                  Velocity(au)
C        -0.04290981    -0.00091101    -0.14127955    -0.00003528    -0.00007791    -0.00045666
N        -0.04121814    -0.08097609     1.43422057     0.00002494    -0.00010240     0.00037568
H         0.98745632     0.08893547    -0.54682969     0.00020855     0.00078005    -0.00052779
H         0.88271009     0.00129263     1.87555864    -0.00050432     0.00040531     0.00044432
H        -0.97459662     0.11265459     1.90897885     0.00013312     0.00071269     0.00066500
H        -1.02440501     0.26347463    -0.59261202     0.00023643     0.00045339    -0.00036057
     6
  Step:    39            Position(A)                                  Velocity(au)
C        -0.04311215    -0.00134519    -0.14375862    -0.00003789    -0.00007823    -0.00043178
N        -0.04110707    -0.08154588     1.43626260     0.00001525    -0.00010212     0.00035633
H         0.98852002     0.09335041    -0.54974802     0.00017746     0.00081110    -0.00051985
H         0.87998205     0.00352125     1.87813072    -0.00047175     0.00038910     0.00048218
H        -0.97349348     0.11665996     1.91250392     0.00026084     0.00073073     0.00059979
H        -1.02297607     0.26591755    -0.59462683     0.00027314     0.00042040    -0.00036877
     6
  Step:    40            Position(A)                                  Velocity(au)
C        -0.04333177    -0.00178214    -0.14608775    -0.00004266    -0.00007989    -0.00039440
N        -0.04104837    -0.08211331     1.43818863     0.00000694    -0.00010089     0.00032822
H         0.98943243     0.09796767    -0.55261866     0.00016942     0.00086037    -0.00052017
H         0.87745677     0.00562552     1.88092812    -0.00043265     0.00035272     0.00052859
H        -0.97169201     0.12079186     1.91565794     0.00038062     0.00076119     0.00053296
H        -1.02136334     0.26815609    -0.59671857     0.00029451     0.00037974    -0.00040275
     6
  Step:    41            Position(A)                                  Velocity(au)
C        -0.04358701    -0.00223435    -0.14814832    -0.00004803    -0.00008481    -0.00032782
N        -0.04102977    -0.08266882     1.43991569    -0.00000079    -0.00009696     0.00027975
H         0.99040564     0.10292634    -0.55553751     0.00020168     0.00091126    -0.00055737
H         0.87516662     0.00744698     1.88401396    -0.00038446     0.00031176     0.00058196
H        -0.96925721     0.12513197     1.91843577     0.00048629     0.00077590     0.00047291
H        -1.01969823     0.27014406    -0.59910938     0.00027986     0.00035904    -0.00047869
     6
  Step:    42            Position(A)                                  Velocity(au)
C        -0.04386607    -0.00272551    -0.14973434    -0.00005049    -0.00009218    -0.00024169
N        -0.04105718    -0.08319185     1.44130051    -0.00000985    -0.00009096     0.00021768
H         0.99167589     0.10810425    -0.55881874     0.00025038     0.00093848    -0.00062873
H         0.87318010     0.00909346     1.88740170    -0.00032725     0.00029420     0.00063336
H        -0.96628270     0.12942278     1.92091847     0.00057941     0.00075285     0.00042484
H        -1.01825022     0.27214995    -0.60204344     0.00023611     0.00037693    -0.00057435
     6
  Step:    43            Position(A)                                  Velocity(au)
C        -0.04414835    -0.00325907    -0.15083518    -0.00005860    -0.00011701    -0.00018313
N        -0.04113932    -0.08368005     1.44233556    -0.00002331    -0.00009945     0.00018286
H         0.99318904     0.11335932    -0.56252702     0.00033671     0.00110963    -0.00082689
H         0.87152859     0.01071751     1.89105487    -0.00031284     0.00034843     0.00079531
H        -0.96281605     0.13350132     1.92315864     0.00077848     0.00083148     0.00045051
H        -1.01707345     0.27433436    -0.60549438     0.00021991     0.00048683    -0.00077786
     6
  Step:    44            Position(A)                                  Velocity(au)
C        -0.04445885    -0.00390464    -0.15183176    -0.00005361    -0.00011541    -0.00017562
N        -0.04130125    -0.08423515     1.44332933    -0.00003403    -0.00010051     0.00017474
H         0.99482931     0.11948771    -0.56704216     0.00025332     0.00110173    -0.00079519
H         0.86994007     0.01272134     1.89553579    -0.00026122     0.00036731     0.00081756
H        -0.95821947     0.13808676     1.92551187     0.00087025     0.00082617     0.00039750
H        -1.01577146     0.27702348    -0.60974777     0.00024930     0.00047673    -0.00075548
     6