     6
  Step:     0            Position(A)                                  Velocity(au)
C        -0.03170202     0.01694267     0.02965423    -0.00008189     0.00008752    -0.00017920
N        -0.04058690    -0.05940470     1.28452054    -0.00011820     0.00008231     0.00022442
H         0.90681333    -0.02460546    -0.56644888     0.00118518    -0.00036740    -0.00077295
H         0.75477779    -0.10090906     1.86397549     0.00090478    -0.00082748     0.00051535
H        -0.92848490    -0.01773166     1.88043513     0.00070271    -0.00036403    -0.00098955
H        -1.00427132     0.09708722    -0.48943099    -0.00017430    -0.00062767     0.00026390
     6
  Step:     1            Position(A)                                  Velocity(au)
C        -0.03215413     0.01742661     0.02826019    -0.00008233     0.00008928    -0.00032966
N        -0.04129818    -0.05899618     1.28609657    -0.00013992     0.00006699     0.00035082
H         0.91342919    -0.02649339    -0.57056416     0.00122119    -0.00032258    -0.00072616
H         0.76049068    -0.10531577     1.86711527     0.00116765    -0.00078275     0.00062244
H        -0.92444664    -0.01958783     1.87470949     0.00076229    -0.00031381    -0.00109400
H        -1.00536668     0.09379507    -0.48801930    -0.00022569    -0.00057551     0.00025094
     6
  Step:     2            Position(A)                                  Velocity(au)
C        -0.03260284     0.01791957     0.02604716    -0.00008061     0.00009117    -0.00048166
N        -0.04211785    -0.05867176     1.28835906    -0.00015714     0.00005168     0.00047762
H         0.92017508    -0.02813500    -0.57439427     0.00121814    -0.00027794    -0.00066989
H         0.76755376    -0.10947356     1.87078604     0.00138970    -0.00073762     0.00071122
H        -0.92014419    -0.02116526     1.86846495     0.00079837    -0.00026445    -0.00117147
H        -1.00674070     0.09079018    -0.48668532    -0.00026196    -0.00052447     0.00023251
     6
  Step:     3            Position(A)                                  Velocity(au)
C        -0.03303691     0.01842502     0.02298565    -0.00007663     0.00009602    -0.00063712
N        -0.04301895    -0.05843023     1.29132682    -0.00016878     0.00003913     0.00060635
H         0.92676879    -0.02953703    -0.57789998     0.00116062    -0.00024953    -0.00060719
H         0.77570890    -0.11339328     1.87490370     0.00155941    -0.00071123     0.00078206
H        -0.91570392    -0.02248372     1.86188099     0.00080751    -0.00023433    -0.00121333
H        -1.00823535     0.08805167    -0.48547313    -0.00026900    -0.00049273     0.00020435
     6
  Step:     4            Position(A)                                  Velocity(au)
C        -0.03344315     0.01897255     0.01906035    -0.00007039     0.00010420    -0.00078706
N        -0.04396874    -0.05824265     1.29500847    -0.00017418     0.00003055     0.00072972
H         0.93290277    -0.03087146    -0.58105286     0.00106394    -0.00024349    -0.00053768
H         0.78465469    -0.11727306     1.87936229     0.00167548    -0.00070878     0.00082751
H        -0.91128886    -0.02373498     1.85515922     0.00078172    -0.00022846    -0.00122022
H        -1.00969060     0.08538674    -0.48444434    -0.00026200    -0.00048533     0.00016860
     6
  Step:     5            Position(A)                                  Velocity(au)
C        -0.03381039     0.01957008     0.01433636    -0.00006226     0.00011261    -0.00092169
N        -0.04493303    -0.05809448     1.29934597    -0.00017305     0.00002376     0.00083945
H         0.93846081    -0.03221279    -0.58380872     0.00094851    -0.00024502    -0.00046079
H         0.79412133    -0.12118234     1.88399749     0.00173993    -0.00071131     0.00084228
H        -0.90711340    -0.02499437     1.84847162     0.00071521    -0.00023020    -0.00119346
H        -1.01111460     0.08271822    -0.48362027    -0.00025690    -0.00048540     0.00012961
     6
  Step:     6            Position(A)                                  Velocity(au)
C        -0.03412934     0.02021353     0.00890279    -0.00005261     0.00011976    -0.00103695
N        -0.04587587    -0.05798075     1.30425968    -0.00016528     0.00001770     0.00093195
H         0.94335589    -0.03357177    -0.58613102     0.00081890    -0.00024671    -0.00037861
H         0.80382970    -0.12511206     1.88864469     0.00175188    -0.00070942     0.00082732
H        -0.90340685    -0.02627189     1.84200657     0.00060689    -0.00023198    -0.00113122
H        -1.01252181     0.08003735    -0.48301597    -0.00025402    -0.00048482     0.00008822
     6
  Step:     7            Position(A)                                  Velocity(au)
C        -0.03439224     0.02089460     0.00286803    -0.00004177     0.00012511    -0.00112978
N        -0.04676092    -0.05789872     1.30965299    -0.00015107     0.00001213     0.00100460
H         0.94751755    -0.03494134    -0.58799600     0.00067902    -0.00024643    -0.00029391
H         0.81349662    -0.12902831     1.89314738     0.00171262    -0.00070015     0.00078519
H        -0.90040143    -0.02756000     1.83596066     0.00045841    -0.00023176    -0.00103398
H        -1.01392401     0.07735624    -0.48264459    -0.00025301    -0.00048103     0.00004496
     6
  Step:     8            Position(A)                                  Velocity(au)
C        -0.03459322     0.02160295    -0.00364369    -0.00003016     0.00012845    -0.00119838
N        -0.04755350    -0.05784601     1.31541600    -0.00013109     0.00000705     0.00105600
H         0.95089653    -0.03630841    -0.58939499     0.00053360    -0.00024359    -0.00020976
H         0.82284881    -0.13288738     1.89736440     0.00162646    -0.00068271     0.00071989
H        -0.89831612    -0.02884561     1.83052397     0.00027475    -0.00022905    -0.00090526
H        -1.01533159     0.07469542    -0.48251671    -0.00025372    -0.00047316     0.00000046
     6
  Step:     9            Position(A)                                  Velocity(au)
C        -0.03472866     0.02232740    -0.01049920    -0.00001823     0.00012980    -0.00124282
N        -0.04822317    -0.05782006     1.32143213    -0.00010646     0.00000250     0.00108648
H         0.95346958    -0.03765843    -0.59033580     0.00038790    -0.00023831    -0.00012922
H         0.83163884    -0.13664354     1.90117731     0.00150078    -0.00065768     0.00063670
H        -0.89733673    -0.03011490     1.82586299     0.00006413    -0.00022410    -0.00075155
H        -1.01675416     0.07207839    -0.48263946    -0.00025614    -0.00046131    -0.00004458
     6
  Step:    10            Position(A)                                  Velocity(au)
C        -0.03479748     0.02305709    -0.01756657    -0.00000644     0.00012943    -0.00126540
N        -0.04874613    -0.05781798     1.32758751    -0.00007860    -0.00000147     0.00109834
H         0.95524205    -0.03897813    -0.59084263     0.00024702    -0.00023117    -0.00005497
H         0.83966154    -0.14025518     1.90449715     0.00134544    -0.00062671     0.00054172
H        -0.89759769    -0.03135611     1.82210460    -0.00016313    -0.00021761    -0.00058145
H        -1.01820102     0.06952751    -0.48301616    -0.00026036    -0.00044628    -0.00008961
     6
  Step:    11            Position(A)                                  Velocity(au)
C        -0.03480106     0.02378269    -0.02472731     0.00000485     0.00012777    -0.00127044
N        -0.04910693    -0.05783658     1.33378180    -0.00004903    -0.00000484     0.00109562
H         0.95624702    -0.04025768    -0.59095389     0.00011518    -0.00022302     0.00001103
H         0.84676692    -0.14369026     1.90726842     0.00117136    -0.00059214     0.00044106
H        -0.89917090    -0.03256170     1.81932515    -0.00039633    -0.00021056    -0.00040422
H        -1.01968162     0.06706041    -0.48364700    -0.00026660    -0.00042938    -0.00013435
     6
  Step:    12            Position(A)                                  Velocity(au)
C        -0.03474286     0.02449734    -0.03188719     0.00001536     0.00012535    -0.00126329
N        -0.04929881    -0.05787259     1.33993751    -0.00001912    -0.00000765     0.00108322
H         0.95654039    -0.04149210    -0.59071833    -0.00000478    -0.00021483     0.00006769
H         0.85286528    -0.14692986     1.90946880     0.00098867    -0.00055645     0.00033993
H        -0.90206517    -0.03372957     1.81754822    -0.00062609    -0.00020397    -0.00022812
H        -1.02120613     0.06468747    -0.48453057    -0.00027510    -0.00041206    -0.00017892
     6
  Step:    13            Position(A)                                  Velocity(au)
C        -0.03462776     0.02519702    -0.03898137     0.00002495     0.00012263    -0.00124893
N        -0.04932267    -0.05792284     1.34600411     0.00001007    -0.00000992     0.00106565
H         0.95619308    -0.04268165    -0.59019009    -0.00011145    -0.00020740     0.00011470
H         0.85792242    -0.14996888     1.91110392     0.00080519    -0.00052169     0.00024212
H        -0.90623532    -0.03486321     1.81675115    -0.00084493    -0.00019873    -0.00005951
H        -1.02278561     0.06241100    -0.48566577    -0.00028597    -0.00039554    -0.00022368
     6
  Step:    14            Position(A)                                  Velocity(au)
C        -0.03446148     0.02588032    -0.04597255     0.00005300     0.00018957    -0.00194565
N        -0.04918529    -0.05798442     1.35195588     0.00005967    -0.00001851     0.00165355
H         0.95528347    -0.04383114    -0.58942471    -0.00032295    -0.00031817     0.00024046
H         0.86194615    -0.15281345     1.91219942     0.00098945    -0.00077307     0.00023711
H        -0.91159427    -0.03597081     1.81687707    -0.00165458    -0.00030885     0.00015380
H        -1.02443125     0.06022660    -0.48705320    -0.00047262    -0.00060145    -0.00042519
     6
  Step:    15            Position(A)                                  Velocity(au)
C        -0.03413747     0.02691453    -0.05648950     0.00003716     0.00010787    -0.00108470
N        -0.04877953    -0.05808679     1.36092066     0.00005021    -0.00001068     0.00092791
H         0.95348827    -0.04558049    -0.58832162    -0.00018583    -0.00018440     0.00008959
H         0.86699871    -0.15700620     1.91330365     0.00048976    -0.00043495     0.00009648
H        -0.92137344    -0.03763772     1.81821020    -0.00109087    -0.00017243     0.00018697
H        -1.02740896     0.05693512    -0.48985084    -0.00035357    -0.00034509    -0.00034221
     6
  Step:    16            Position(A)                                  Velocity(au)
C        -0.03391027     0.02751411    -0.06252967     0.00004291     0.00010515    -0.00105984
N        -0.04842869    -0.05814977     1.36608164     0.00007299    -0.00001151     0.00090506
H         0.95224324    -0.04660815    -0.58775127    -0.00024972    -0.00018130     0.00010880
H         0.86926422    -0.15936960     1.91361477     0.00031999    -0.00040559     0.00001808
H        -0.92795814    -0.03861096     1.81963216    -0.00123329    -0.00017411     0.00030943
H        -1.02942754     0.05503050    -0.49189812    -0.00036253    -0.00033197    -0.00038417
     6
  Step:    17            Position(A)                                  Velocity(au)
C        -0.03365452     0.02809803    -0.06841816     0.00004757     0.00010300    -0.00103786
N        -0.04795806    -0.05821635     1.37110720     0.00009315    -0.00001204     0.00088581
H         0.95067762    -0.04762099    -0.58709706    -0.00030153    -0.00018036     0.00012022
H         0.87060029    -0.16157113     1.91350709     0.00016199    -0.00038004    -0.00005202
H        -0.93525435    -0.03959732     1.82169289    -0.00135074    -0.00017824     0.00041590
H        -1.03148931     0.05319871    -0.49417478    -0.00037101    -0.00032127    -0.00042633
     6
  Step:    18            Position(A)                                  Velocity(au)
C        -0.03337662     0.02866950    -0.07417220     0.00005098     0.00010115    -0.00101640
N        -0.04738377    -0.05828485     1.37601841     0.00011023    -0.00001225     0.00086810
H         0.94886079    -0.04863139    -0.58640267    -0.00034054    -0.00018123     0.00012369
H         0.87108140    -0.16363285     1.91303127     0.00001659    -0.00035737    -0.00011305
H        -0.94311047    -0.04061044     1.82429764    -0.00143783    -0.00018439     0.00050509
H        -1.03358948     0.05142662    -0.49668063    -0.00037752    -0.00031197    -0.00046769
     6
  Step:    19            Position(A)                                  Velocity(au)
C        -0.03308380     0.02923030    -0.07979587     0.00005300     0.00009942    -0.00099373
N        -0.04672416    -0.05835352     1.38082484     0.00012379    -0.00001213     0.00085040
H         0.94686555    -0.04964966    -0.58571249    -0.00036600    -0.00018363     0.00011908
H         0.87078606    -0.16557154     1.91224158    -0.00011443    -0.00033697    -0.00016399
H        -0.95134954    -0.04166138     1.82734691    -0.00149049    -0.00019214     0.00057596
H        -1.03571528     0.04970653    -0.49941016    -0.00038080    -0.00030333    -0.00050725
     6
  Step:    20            Position(A)                                  Velocity(au)
C        -0.03278405     0.02978121    -0.08528374     0.00005350     0.00009770    -0.00096883
N        -0.04599960    -0.05842051     1.38552736     0.00013351    -0.00001167     0.00083173
H         0.94476831    -0.05068465    -0.58507118    -0.00037737    -0.00018741     0.00010644
H         0.86980183    -0.16740077     1.91119761    -0.00022889    -0.00031861    -0.00020373
H        -0.95977668    -0.04275889     1.83073781    -0.00150666    -0.00020116     0.00062809
H        -1.03784741     0.04803489    -0.50235253    -0.00037994    -0.00029485    -0.00054417
     6
  Step:    21            Position(A)                                  Velocity(au)
C        -0.03248581     0.03032236    -0.09062474     0.00005246     0.00009594    -0.00094130
N        -0.04523186    -0.05848396     1.39012128     0.00013923    -0.00001087     0.00081157
H         0.94264755    -0.05174435    -0.58452274    -0.00037456    -0.00019249     0.00008606
H         0.86822767    -0.16913270     1.90996448    -0.00032459    -0.00030224    -0.00023132
H        -0.96818981    -0.04390978     1.83436728    -0.00148630    -0.00021117     0.00066184
H        -1.03996192     0.04641092    -0.50549244    -0.00037437    -0.00028622    -0.00057782
     6
  Step:    22            Position(A)                                  Velocity(au)
C        -0.03219770     0.03085358    -0.09580550     0.00004987     0.00009411    -0.00091117
N        -0.04444334    -0.05854199     1.39459897     0.00014093    -0.00000973     0.00078977
H         0.94058154    -0.05283625    -0.58410922    -0.00035791    -0.00019885     0.00005843
H         0.86617364    -0.17077920     1.90861194    -0.00039970    -0.00028796    -0.00024612
H        -0.97639032    -0.04511934     1.83813581    -0.00143121    -0.00022197     0.00067826
H        -1.04203212     0.04483557    -0.50881137    -0.00036387    -0.00027726    -0.00060785
     6
  Step:    23            Position(A)                                  Velocity(au)
C        -0.03192815     0.03137458    -0.10081277     0.00004583     0.00009222    -0.00087879
N        -0.04365613    -0.05859279     1.39895184     0.00013876    -0.00000829     0.00076642
H         0.93864563    -0.05396773    -0.58386945    -0.00032829    -0.00020651     0.00002426
H         0.86375859    -0.17235250     1.90721254    -0.00045300    -0.00027591    -0.00024786
H        -0.98419249    -0.04639171     1.84195102    -0.00134468    -0.00023343     0.00067899
H        -1.04403040     0.04331078    -0.51228896    -0.00034846    -0.00026790    -0.00063412
     6
  Step:    24            Position(A)                                  Velocity(au)
C        -0.03168503     0.03188513    -0.10563514     0.00004046     0.00009032    -0.00084466
N        -0.04289124    -0.05863466     1.40317170     0.00013300    -0.00000654     0.00074177
H         0.93690951    -0.05514618    -0.58383782    -0.00028696    -0.00021552    -0.00001554
H         0.86110665    -0.17386536     1.90583953    -0.00048399    -0.00026618    -0.00023665
H        -0.99143115    -0.04773031     1.84573065    -0.00123097    -0.00024546     0.00066611
H        -1.04592978     0.04183899    -0.51590427    -0.00032841    -0.00025809    -0.00065670
     6
  Step:    25            Position(A)                                  Velocity(au)
C        -0.03147543     0.03238518    -0.11026400     0.00003392     0.00008843    -0.00080941
N        -0.04216796    -0.05866602     1.40725171     0.00012401    -0.00000454     0.00071615
H         0.93543474    -0.05637923    -0.58404338    -0.00023559    -0.00022593    -0.00005999
H         0.85834303    -0.17533089     1.90456456    -0.00049292    -0.00025883    -0.00021301
H        -0.99796618    -0.04913822     1.84940432    -0.00109489    -0.00025807     0.00064188
H        -1.04770511     0.04042290    -0.51963695    -0.00030417    -0.00024782    -0.00067584
     6
  Step:    26            Position(A)                                  Velocity(au)
C        -0.03130535     0.03287483    -0.11469396     0.00002642     0.00008659    -0.00077362
N        -0.04150331    -0.05868543     1.41118681     0.00011223    -0.00000229     0.00068993
H         0.93427286    -0.05767479    -0.58450921    -0.00017605    -0.00023783    -0.00010799
H         0.85558987    -0.17676211     1.90345556    -0.00048072    -0.00025377    -0.00017775
H        -1.00368503    -0.05061865     1.85291448    -0.00094143    -0.00027135     0.00060863
H        -1.04933399     0.03906536    -0.52346820    -0.00027627    -0.00023706    -0.00069191
     6
  Step:    27            Position(A)                                  Velocity(au)
C        -0.03117968     0.03335440    -0.11892289     0.00001817     0.00008484    -0.00073783
N        -0.04091178    -0.05869164     1.41497389     0.00009813     0.00000017     0.00066343
H         0.93346420    -0.05904125    -0.58525214    -0.00011041    -0.00025134    -0.00015847
H         0.85296241    -0.17817129     1.90257502    -0.00044894    -0.00025081    -0.00013199
H        -1.00850332    -0.05217535     1.85621656    -0.00077548    -0.00028543     0.00056863
H        -1.05079731     0.03776958    -0.52738134    -0.00024532    -0.00022570    -0.00070535
     6
  Step:    28            Position(A)                                  Velocity(au)
C        -0.03110203     0.03382438    -0.12295153     0.00000937     0.00008320    -0.00070249
N        -0.04040506    -0.05868357     1.41861167     0.00008221     0.00000280     0.00063693
H         0.93303723    -0.06048767    -0.58628280    -0.00004073    -0.00026660    -0.00021036
H         0.85056544    -0.17956906     1.90197841    -0.00039970    -0.00024954    -0.00007705
H        -1.01236394    -0.05381314     1.85927838    -0.00060166    -0.00030058     0.00052397
H        -1.05207954     0.03653940    -0.53136228    -0.00021196    -0.00021358    -0.00071665
     6
  Step:    29            Position(A)                                  Velocity(au)
C        -0.03107480     0.03428535    -0.12678294     0.00000025     0.00008169    -0.00066791
N        -0.03999200    -0.05866034     1.42210038     0.00006496     0.00000557     0.00061064
H         0.93300844    -0.06202420    -0.58760576     0.00003089    -0.00028389    -0.00026261
H         0.84849020    -0.18096334     1.90171293    -0.00033561    -0.00024934    -0.00001447
H        -1.01523514    -0.05553846     1.86207918    -0.00042419    -0.00031715     0.00047655
H        -1.05316884     0.03537988    -0.53539973    -0.00017681    -0.00020039    -0.00072629
     6
  Step:    30            Position(A)                                  Velocity(au)
C        -0.03109922     0.03473800    -0.13042165    -0.00000900     0.00008030    -0.00063420
N        -0.03967852    -0.05862127     1.42544127     0.00004691     0.00000845     0.00058463
H         0.93338275    -0.06366279    -0.58921998     0.00010252    -0.00030364    -0.00031432
H         0.84681189    -0.18235778     1.90181660    -0.00025963    -0.00024925     0.00005412
H        -1.01710824    -0.05736029     1.86460824    -0.00024692    -0.00033573     0.00042798
H        -1.05405709     0.03429818    -0.53948535    -0.00014055    -0.00018560    -0.00073482
     6
  Step:    31            Position(A)                                  Velocity(au)
C        -0.03117541     0.03518300    -0.13387250    -0.00001821     0.00007903    -0.00060128
N        -0.03946765    -0.05856589     1.42863579     0.00002856     0.00001139     0.00055884
H         0.93415444    -0.06541856    -0.59111950     0.00017242    -0.00032670    -0.00036473
H         0.84558788    -0.18374966     1.90231788    -0.00017500    -0.00024779     0.00012703
H        -1.01799541    -0.05929156     1.86686352    -0.00007338    -0.00035728     0.00037968
H        -1.05474005     0.03330515    -0.54361413    -0.00010391    -0.00016827    -0.00074291
     6
  Step:    32            Position(A)                                  Velocity(au)
C        -0.03130264     0.03562099    -0.13713940    -0.00002725     0.00007788    -0.00056873
N        -0.03935946    -0.05849399     1.43168484     0.00001045     0.00001435     0.00053300
H         0.93530908    -0.06731280    -0.59329486     0.00023943    -0.00035477    -0.00041352
H         0.84485669    -0.18512614     1.90323581    -0.00008510    -0.00024243     0.00020273
H        -1.01792812    -0.06135198     1.86885022     0.00009303    -0.00038355     0.00033279
H        -1.05521804     0.03241817    -0.54778548    -0.00006793    -0.00014667    -0.00075165
     6
  Step:    33            Position(A)                                  Velocity(au)
C        -0.03147965     0.03605261    -0.14022272    -0.00003608     0.00007684    -0.00053504
N        -0.03935093    -0.05840568     1.43458699    -0.00000681     0.00001725     0.00050608
H         0.93682783    -0.06937979    -0.59573663     0.00030398    -0.00039179    -0.00046185
H         0.84463775    -0.18645654     1.90458150     0.00000686    -0.00022823     0.00028024
H        -1.01695671    -0.06357408     1.87057930     0.00024870    -0.00041815     0.00028817
H        -1.05549855     0.03166755    -0.55200676    -0.00003499    -0.00011706    -0.00076369
     6
  Step:    34            Position(A)                                  Velocity(au)
C        -0.03170522     0.03647836    -0.14310963    -0.00004471     0.00007580    -0.00049321
N        -0.03943545    -0.05830153     1.43733194    -0.00002252     0.00002003     0.00047330
H         0.93870109    -0.07168465    -0.59844842     0.00037343    -0.00044627    -0.00051835
H         0.84493322    -0.18767287     1.90636289     0.00009854    -0.00019535     0.00036031
H        -1.01515294    -0.06601788     1.87206581     0.00038872    -0.00046738     0.00024691
H        -1.05560852     0.03111195    -0.55630715    -0.00001504    -0.00007249    -0.00078890
     6
  Step:    35            Position(A)                                  Velocity(au)
C        -0.03197822     0.03689787    -0.14572274    -0.00005646     0.00008046    -0.00046180
N        -0.03960202    -0.05818234     1.43986499    -0.00003952     0.00002476     0.00045802
H         0.94099212    -0.07435644    -0.60151708     0.00050387    -0.00055434    -0.00065573
H         0.84573662    -0.18863500     1.90859946     0.00020441    -0.00016197     0.00047916
H        -1.01262186    -0.06878610     1.87333274     0.00055027    -0.00056209     0.00023143
H        -1.05566627     0.03085912    -0.56080425    -0.00003654    -0.00002446    -0.00091680
     6
  Step:    36            Position(A)                                  Velocity(au)
C        -0.03229766     0.03734019    -0.14817774    -0.00005860     0.00007861    -0.00042818
N        -0.03987069    -0.05803348     1.44232227    -0.00005538     0.00002837     0.00042997
H         0.94393929    -0.07728309    -0.60533254     0.00053887    -0.00050957    -0.00069826
H         0.84710192    -0.18977550     1.91142055     0.00027932    -0.00023179     0.00053098
H        -1.00919287    -0.07173911     1.87457588     0.00067143    -0.00051481     0.00021452
H        -1.05586761     0.03054024    -0.56594632    -0.00002181    -0.00007470    -0.00092004
     6
  Step:    37            Position(A)                                  Velocity(au)
C        -0.03263099     0.03777358    -0.15049272    -0.00006095     0.00007713    -0.00040556
N        -0.04021894    -0.05786633     1.44465490    -0.00006826     0.00003151     0.00040926
H         0.94699514    -0.08003311    -0.60929576     0.00055068    -0.00048455    -0.00071893
H         0.84884826    -0.19121719     1.91451458     0.00034122    -0.00027762     0.00057704
H        -1.00514213    -0.07452112     1.87572255     0.00077285    -0.00049218     0.00019964
H        -1.05590919     0.03002698    -0.57105350     0.00001008    -0.00010250    -0.00091234
     6
  Step:    38            Position(A)                                  Velocity(au)
C        -0.03297635     0.03819901    -0.15269360    -0.00006277     0.00007576    -0.00038640
N        -0.04063073    -0.05768267     1.44687937    -0.00007828     0.00003437     0.00039069
H         0.95007108    -0.08267846    -0.61333780     0.00054794    -0.00046889    -0.00072914
H         0.85090133    -0.19286678     1.91784579     0.00038912    -0.00031037     0.00061586
H        -1.00058721    -0.07721951     1.87679890     0.00085265    -0.00048136     0.00019052
H        -1.05575534     0.02939889    -0.57610519     0.00004603    -0.00011974    -0.00090201
     6
  Step:    39            Position(A)                                  Velocity(au)
C        -0.03332961     0.03861678    -0.15479341    -0.00006377     0.00007442    -0.00036923
N        -0.04109019    -0.05748376     1.44900332    -0.00008542     0.00003704     0.00037325
H         0.95309380    -0.08525191    -0.61741122     0.00053260    -0.00045760    -0.00073144
H         0.85317920    -0.19467161     1.92136918     0.00042185    -0.00033516     0.00064613
H        -0.99565204    -0.07987875     1.87784304     0.00090975    -0.00047699     0.00018876
H        -1.05539685     0.02869420    -0.58109302     0.00008283    -0.00013165    -0.00089041
     6
  Step:    40            Position(A)                                  Velocity(au)
C        -0.03368589     0.03902695    -0.15680161    -0.00006389     0.00007308    -0.00035361
N        -0.04158114    -0.05727063     1.45103203    -0.00008965     0.00003953     0.00035665
H         0.95599660    -0.08776963    -0.62147562     0.00050576    -0.00044850    -0.00072685
H         0.85559472    -0.19659567     1.92503442     0.00043874    -0.00035421     0.00066715
H        -0.99046563    -0.08252634     1.87889899     0.00094341    -0.00047686     0.00019519
H        -1.05483374     0.02793424    -0.58601160     0.00011922    -0.00014045    -0.00087793
     6
  Step:    41            Position(A)                                  Velocity(au)
C        -0.03404012     0.03942948    -0.15872613    -0.00006310     0.00007172    -0.00033932
N        -0.04208726    -0.05704417     1.45296979    -0.00009097     0.00004187     0.00034076
H         0.95871860    -0.09023993    -0.62549485     0.00046850    -0.00044052    -0.00071607
H         0.85805868    -0.19861098     1.92878882     0.00043971    -0.00036866     0.00067868
H        -0.98515996    -0.08518210     1.88001383     0.00095333    -0.00047994     0.00021020
H        -1.05407094     0.02713221    -0.59085693     0.00015444    -0.00014728    -0.00086483
     6
  Step:    42            Position(A)                                  Velocity(au)
C        -0.03438736     0.03982430    -0.16057393    -0.00006144     0.00007035    -0.00032621
N        -0.04259244    -0.05680519     1.45482039    -0.00008943     0.00004408     0.00032551
H         0.96120506    -0.09266701    -0.62943633     0.00042196    -0.00043310    -0.00069974
H         0.86048308    -0.20069415     1.93257953     0.00042520    -0.00037919     0.00068087
H        -0.97986714    -0.08786202     1.88123586     0.00093977    -0.00048574     0.00023388
H        -1.05311674     0.02629686    -0.59562616     0.00018798    -0.00015279    -0.00085131
     6
  Step:    43            Position(A)                                  Velocity(au)
C        -0.03472292     0.04021133    -0.16235129    -0.00005898     0.00006897    -0.00031417
N        -0.04308110    -0.05655435     1.45658720    -0.00008518     0.00004618     0.00031084
H         0.96340784    -0.09505298    -0.63327103     0.00036735    -0.00042598    -0.00067851
H         0.86278395    -0.20282492     1.93635535     0.00039616    -0.00038632     0.00067414
H        -0.97471633    -0.09058015     1.88261292     0.00090354    -0.00049399     0.00026601
H        -1.05198193     0.02543431    -0.60031752     0.00021942    -0.00015735    -0.00083757
     6
  Step:    44            Position(A)                                  Velocity(au)
C        -0.03504250     0.04059051    -0.16406387    -0.00005577     0.00006759    -0.00030310
N        -0.04353866    -0.05629218     1.45827338    -0.00007842     0.00004821     0.00029672
H         0.96528574    -0.09739897    -0.63697352     0.00030592    -0.00041903    -0.00065302
H         0.86488378    -0.20498563     1.94006824     0.00035389    -0.00039049     0.00065915
H        -0.96983019    -0.09334954     1.88419079     0.00084612    -0.00050456     0.00030606
H        -1.05067932     0.02454894    -0.60493029     0.00024844    -0.00016123    -0.00082380
     6