     6
  Step:     0            Position(A)                                  Velocity(au)
C        -0.03951783     0.03155055     0.03015677    -0.00009188     0.00002167     0.00023082
N        -0.03281618    -0.07218407     1.28496509     0.00023054    -0.00002538    -0.00018312
H         0.88996905    -0.08186841    -0.53487681    -0.00044614    -0.00001253     0.00017598
H         0.74404770    -0.09264156     1.89922975    -0.00180648    -0.00001726    -0.00121384
H        -0.92258905     0.09519977     1.83356525    -0.00101243     0.00040818     0.00044947
H        -0.99744399     0.03666976    -0.52155335     0.00115620    -0.00028394     0.00038262
     6
  Step:     1            Position(A)                                  Velocity(au)
C        -0.04001522     0.03169117     0.03099569    -0.00008935     0.00002992     0.00007469
N        -0.03162486    -0.07237192     1.28431979     0.00020222    -0.00004306    -0.00005230
H         0.88772606    -0.08184428    -0.53394455    -0.00037416     0.00002098     0.00016253
H         0.73486179    -0.09260769     1.89284116    -0.00152507     0.00002834    -0.00109996
H        -0.92798021     0.09752832     1.83588094    -0.00094620     0.00043973     0.00039103
H        -0.99125219     0.03521793    -0.51944214     0.00109997    -0.00024723     0.00038315
     6
  Step:     2            Position(A)                                  Velocity(au)
C        -0.04049521     0.03187786     0.03097379    -0.00008566     0.00003871    -0.00008408
N        -0.03060408    -0.07265512     1.28439300     0.00016860    -0.00005993     0.00007968
H         0.88587604    -0.08163885    -0.53309883    -0.00030533     0.00005247     0.00014348
H         0.72736465    -0.09233156     1.88719711    -0.00119250     0.00006915    -0.00094197
H        -0.93293975     0.10001010     1.83784281    -0.00085624     0.00046262     0.00032237
H        -0.98541119     0.03396529    -0.51736200     0.00103180    -0.00021270     0.00037077
     6
  Step:     3            Position(A)                                  Velocity(au)
C        -0.04095224     0.03211461     0.03007594    -0.00008104     0.00004842    -0.00024456
N        -0.02978048    -0.07302751     1.28519141     0.00013062    -0.00007540     0.00021210
H         0.88438589    -0.08127025    -0.53237502    -0.00024232     0.00007894     0.00011793
H         0.72181666    -0.09185124     1.88253663    -0.00081646     0.00010121    -0.00074335
H        -0.93734695     0.10258904     1.83940746    -0.00074670     0.00047422     0.00024704
H        -0.97996500     0.03289118    -0.51538620     0.00095604    -0.00018363     0.00034513
     6
  Step:     4            Position(A)                                  Velocity(au)
C        -0.04138162     0.03240746     0.02829883    -0.00007551     0.00005913    -0.00040397
N        -0.02917541    -0.07347979     1.28671293     0.00008916    -0.00008914     0.00034294
H         0.88322563    -0.08077547    -0.53180898    -0.00018268     0.00009842     0.00008639
H         0.71843436    -0.09122452     1.87906642    -0.00040509     0.00012321    -0.00051156
H        -0.94110705     0.10519710     1.84054487    -0.00062190     0.00047399     0.00016676
H        -0.97495419     0.03195682    -0.51358705     0.00087032    -0.00016150     0.00030643
     6
  Step:     5            Position(A)                                  Velocity(au)
C        -0.04177804     0.03276130     0.02565790    -0.00006889     0.00007045    -0.00055890
N        -0.02880531    -0.07400243     1.28894205     0.00004519    -0.00010124     0.00046982
H         0.88238801    -0.08019385    -0.53143022    -0.00012281     0.00011147     0.00005001
H         0.71738632    -0.09050376     1.87694191     0.00003147     0.00013720    -0.00025668
H        -0.94414845     0.10777288     1.84123128    -0.00048555     0.00046368     0.00008284
H        -0.97044661     0.03112494    -0.51203484     0.00076983    -0.00014500     0.00025494
     6
  Step:     6            Position(A)                                  Velocity(au)
C        -0.04213519     0.03317805     0.02218555    -0.00006104     0.00008181    -0.00070616
N        -0.02868112    -0.07458715     1.29185184    -0.00000016    -0.00011184     0.00059059
H         0.88188236    -0.07955619    -0.53126202    -0.00006054     0.00011959     0.00000978
H         0.71877862    -0.08972381     1.87625886     0.00047987     0.00014614     0.00000964
H        -0.94641803     0.11026883     1.84145093    -0.00034101     0.00044549    -0.00000289
H        -0.96653379     0.03037079    -0.51079849     0.00065128    -0.00013191     0.00019100
     6
  Step:     7            Position(A)                                  Velocity(au)
C        -0.04244606     0.03365668     0.01792950    -0.00005186     0.00009268    -0.00084254
N        -0.02880710    -0.07522646     1.29540566    -0.00004549    -0.00012099     0.00070315
H         0.88172546    -0.07888508    -0.53132314     0.00000487     0.00012395    -0.00003346
H         0.72263811    -0.08890432     1.87704736     0.00092351     0.00015232     0.00027452
H        -0.94788060     0.11264840     1.84119962    -0.00019195     0.00042104    -0.00008790
H        -0.96331887     0.02968127    -0.50994446     0.00051359    -0.00012039     0.00011542
     6
  Step:     8            Position(A)                                  Velocity(au)
C        -0.04270342     0.03419357     0.01295344    -0.00004138     0.00010255    -0.00096462
N        -0.02917954    -0.07591287     1.29955653    -0.00008913    -0.00012858     0.00080513
H         0.88193574    -0.07819799    -0.53162864     0.00007322     0.00012527    -0.00007894
H         0.72889792    -0.08805480     1.87926695     0.00134338     0.00015716     0.00052439
H        -0.94852131     0.11488238     1.84048773    -0.00004273     0.00039152    -0.00016910
H        -0.96090612     0.02905160    -0.50953375     0.00035774    -0.00010918     0.00002976
     6
  Step:     9            Position(A)                                  Velocity(au)
C        -0.04290039     0.03478263     0.00733855    -0.00002976     0.00011097    -0.00106878
N        -0.02978567    -0.07663818     1.30424547    -0.00012928    -0.00013443     0.00089391
H         0.88252941    -0.07750964    -0.53218984     0.00014362     0.00012393    -0.00012579
H         0.73738763    -0.08717884     1.88280483     0.00171937     0.00016143     0.00074580
H        -0.94834972     0.11694701     1.83934298     0.00010143     0.00035792    -0.00024294
H        -0.95939106     0.02848251    -0.50961767     0.00018670    -0.00009748    -0.00006351
     6
  Step:    10            Position(A)                                  Velocity(au)
C        -0.04303116     0.03541547     0.00118467    -0.00001732     0.00011752    -0.00115156
N        -0.03060305    -0.07739315     1.30939972    -0.00016411    -0.00013835     0.00096679
H         0.88351722    -0.07683334    -0.53301380     0.00021460     0.00012015    -0.00017304
H         0.74783061    -0.08627719     1.88747922     0.00203225     0.00016545     0.00092678
H        -0.94740446     0.11882362     1.83781263     0.00023455     0.00032138    -0.00030564
H        -0.95885034     0.02797825    -0.51023304     0.00000542    -0.00008481    -0.00016101
     6
  Step:    11            Position(A)                                  Velocity(au)
C        -0.04309182     0.03608162    -0.00539059    -0.00000449     0.00012188    -0.00121021
N        -0.03159966    -0.07816744     1.31493227    -0.00019199    -0.00014017     0.00102145
H         0.88490153    -0.07618153    -0.53410255     0.00028424     0.00011415    -0.00021959
H         0.75985175    -0.08535001     1.89304935     0.00226622     0.00016919     0.00105833
H        -0.94575702     0.12049953     1.83596447     0.00035038     0.00028327    -0.00035358
H        -0.95933113     0.02754503    -0.51139741    -0.00017933    -0.00007100    -0.00025867
     6
  Step:    12            Position(A)                                  Velocity(au)
C        -0.04308104     0.03676899    -0.01225554     0.00000818     0.00012389    -0.00124349
N        -0.03273525    -0.07894987     1.32074361    -0.00021178    -0.00013990     0.00105654
H         0.88667393    -0.07556568    -0.53545247     0.00035049     0.00010622    -0.00026438
H         0.77299842    -0.08439827     1.89923271     0.00241167     0.00017250     0.00113578
H        -0.94351327     0.12196955     1.83388585     0.00044311     0.00024525    -0.00038384
H        -0.96084197     0.02718971    -0.51310572    -0.00035980    -0.00005611    -0.00035225
     6
  Step:    13            Position(A)                                  Velocity(au)
C        -0.04300055     0.03746468    -0.01927250     0.00002013     0.00012363    -0.00125244
N        -0.03396387    -0.07972928     1.32672721    -0.00022301    -0.00013774     0.00107249
H         0.88881433    -0.07499568    -0.53705400     0.00041153     0.00009683    -0.00030653
H         0.78677495    -0.08342428     1.90572884     0.00246756     0.00017528     0.00115979
H        -0.94081023     0.12323747     1.83167942     0.00050849     0.00020919    -0.00039478
H        -0.96334781     0.02691864    -0.51532981    -0.00052844    -0.00004036    -0.00043809
     6
  Step:    14            Position(A)                                  Velocity(au)
C        -0.04285516     0.03815632    -0.02631048     0.00003091     0.00012143    -0.00124089
N        -0.03523786    -0.08049560     1.33277917    -0.00022611    -0.00013414     0.00107194
H         0.89129218    -0.07447904    -0.53889237     0.00046630     0.00008655    -0.00034558
H         0.80068944    -0.08243122     1.91224790     0.00244227     0.00017764     0.00113644
H        -0.93780697     0.12431707     1.82945562     0.00054469     0.00017692    -0.00038648
H        -0.96677211     0.02673676    -0.51802196    -0.00067951    -0.00002408    -0.00051390
     6
  Step:    15            Position(A)                                  Velocity(au)
C        -0.04265208     0.03883347    -0.03325986     0.00004028     0.00011787    -0.00121492
N        -0.03651261    -0.08124129     1.33881013    -0.00022227    -0.00012974     0.00105946
H         0.89407048    -0.07402007    -0.54094936     0.00051475     0.00007602    -0.00038154
H         0.81430430    -0.08142194     1.91853882     0.00235176     0.00017992     0.00107572
H        -0.93467047     0.12523175     1.82732294     0.00055256     0.00015001    -0.00036061
H        -0.97100729     0.02664718    -0.52112251    -0.00081023    -0.00000756    -0.00057918
     6
  Step:    16            Position(A)                                  Velocity(au)
C        -0.04239986     0.03948880    -0.04004447     0.00007344     0.00017319    -0.00180142
N        -0.03775053    -0.08196228     1.34475578    -0.00032488    -0.00019097     0.00158648
H         0.89711116    -0.07361966    -0.54320550     0.00085055     0.00010033    -0.00063282
H         0.82727484    -0.08039737     1.92440836     0.00337723     0.00027852     0.00150774
H        -0.93156058     0.12601282     1.82537916     0.00081562     0.00019741    -0.00048737
H        -0.97593134     0.02665133    -0.52456932    -0.00140390     0.00001381    -0.00096801
     6
  Step:    17            Position(A)                                  Velocity(au)
C        -0.04197935     0.04044774    -0.04974969     0.00007344     0.00016303    -0.00160591
N        -0.03952735    -0.08300667     1.35337993    -0.00029587    -0.00017585     0.00144010
H         0.90227864    -0.07315747    -0.54717098     0.00095351     0.00006376    -0.00075100
H         0.84573049    -0.07888695     1.93263040     0.00307554     0.00025223     0.00136306
H        -0.92714049     0.12714628     1.82282696     0.00072015     0.00020470    -0.00039882
H        -0.98429413     0.02663150    -0.53047015    -0.00151278    -0.00001970    -0.00108921
     6
  Step:    18            Position(A)                                  Velocity(au)
C        -0.04156200     0.04134878    -0.05836583     0.00007254     0.00015327    -0.00142329
N        -0.04112606    -0.08396853     1.36118539    -0.00026360    -0.00016238     0.00130256
H         0.90798946    -0.07289219    -0.55177344     0.00104167     0.00003148    -0.00085728
H         0.86236273    -0.07751977     1.93995910     0.00274987     0.00022853     0.00120147
H        -0.92334458     0.12834819     1.82082920     0.00060056     0.00022136    -0.00029560
H        -0.99319019     0.02642654    -0.53699572    -0.00159340    -0.00005130    -0.00118951
     6
  Step:    19            Position(A)                                  Velocity(au)
C        -0.04115273     0.04219443    -0.06596968     0.00003419     0.00006950    -0.00060531
N        -0.04253135    -0.08485715     1.36822411    -0.00011060    -0.00007263     0.00056670
H         0.91414961    -0.07279876    -0.55694070     0.00053714     0.00000169    -0.00045909
H         0.87706845    -0.07628256     1.94632251     0.00116354     0.00009989     0.00049734
H        -0.92029646     0.12966892     1.81945827     0.00022291     0.00011888    -0.00008756
H        -1.00245272     0.02604684    -0.54402593    -0.00079415    -0.00003924    -0.00061287
     6
  Step:    20            Position(A)                                  Velocity(au)
C        -0.04094949     0.04257547    -0.06934489     0.00003778     0.00006618    -0.00059659
N        -0.04308910    -0.08526557     1.37140410    -0.00008769    -0.00007289     0.00056519
H         0.91721999    -0.07280053    -0.55958397     0.00055265    -0.00000194    -0.00048027
H         0.88295366    -0.07568676     1.94871809     0.00093112     0.00011218     0.00035619
H        -0.91935638     0.13036326     1.81923885     0.00010920     0.00012969     0.00001033
H        -1.00701942     0.02589350    -0.54752985    -0.00082458    -0.00001571    -0.00063139
     6
  Step:    21            Position(A)                                  Velocity(au)
C        -0.04072857     0.04293745    -0.07266768     0.00004092     0.00006334    -0.00059258
N        -0.04351587    -0.08567544     1.37456963    -0.00006491    -0.00007385     0.00056723
H         0.92035427    -0.07282048    -0.56233280     0.00056557    -0.00000482    -0.00050168
H         0.88752231    -0.07502311     1.95032152     0.00070391     0.00012529     0.00021874
H        -0.91907049     0.13112499     1.81957419    -0.00000800     0.00014376     0.00010994
H        -1.01171039     0.02587042    -0.55111468    -0.00084706     0.00000725    -0.00064824
     6
  Step:    22            Position(A)                                  Velocity(au)
C        -0.04049241     0.04328302    -0.07596427     0.00004350     0.00006067    -0.00059076
N        -0.04381418    -0.08609051     1.37774032    -0.00004226    -0.00007515     0.00057047
H         0.92353765    -0.07285437    -0.56518795     0.00057367    -0.00000696    -0.00052143
H         0.89081662    -0.07428718     1.95116147     0.00047988     0.00013887     0.00008461
H        -0.91944573     0.13196907     1.82046694    -0.00012604     0.00015956     0.00020993
H        -1.01648147     0.02597448    -0.55477093    -0.00085859     0.00002998    -0.00066099
     6
  Step:    23            Position(A)                                  Velocity(au)
C        -0.04024405     0.04361311    -0.07924708     0.00004548     0.00005799    -0.00058967
N        -0.04398658    -0.08651244     1.38092301    -0.00002007    -0.00007654     0.00057353
H         0.92674336    -0.07289804    -0.56814008     0.00057563    -0.00000836    -0.00053835
H         0.89286681    -0.07347644     1.95126386     0.00026007     0.00015268    -0.00004510
H        -0.92047425     0.13290201     1.82191221    -0.00024125     0.00017570     0.00030823
H        -1.02127265     0.02620427    -0.55847627    -0.00085752     0.00005258    -0.00066829
     6
  Step:    24            Position(A)                                  Velocity(au)
C        -0.03998679     0.04392773    -0.08252040     0.00004682     0.00005521    -0.00058846
N        -0.04403728    -0.08694146     1.38411706     0.00000123    -0.00007781     0.00057565
H         0.92993769    -0.07294736    -0.57117356     0.00057075    -0.00000902    -0.00055175
H         0.89370813    -0.07258965     1.95065999     0.00004707     0.00016654    -0.00016865
H        -0.92212800     0.13392257     1.82389395    -0.00034956     0.00019089     0.00040255
H        -1.02601568     0.02655904    -0.56220120    -0.00084324     0.00007506    -0.00066947
     6
  Step:    25            Position(A)                                  Velocity(au)
C        -0.03972400     0.04422638    -0.08578386     0.00004753     0.00005229    -0.00058663
N        -0.04397291    -0.08737683     1.38731750     0.00002111    -0.00007886     0.00057636
H         0.93308347    -0.07299828    -0.57426918     0.00055880    -0.00000897    -0.00056127
H         0.89338970    -0.07162640     1.94939044    -0.00015575     0.00018038    -0.00028398
H        -0.92435727     0.13502250     1.82638393    -0.00044702     0.00020396     0.00049067
H        -1.03063963     0.02703802    -0.56591298    -0.00081586     0.00009737    -0.00066436
     6
  Step:    26            Position(A)                                  Velocity(au)
C        -0.03945898     0.04450832    -0.08903433     0.00004766     0.00004921    -0.00058391
N        -0.04380282    -0.08781707     1.39051690     0.00003908    -0.00007956     0.00057541
H         0.93614255    -0.07304697    -0.57740590     0.00053986    -0.00000825    -0.00056677
H         0.89197874    -0.07058669     1.94750673    -0.00034470     0.00019415    -0.00038896
H        -0.92709170     0.13618733     1.82934230    -0.00053010     0.00021389     0.00057057
H        -1.03507494     0.02764025    -0.56957828    -0.00077603     0.00011946    -0.00065314
     6
  Step:    27            Position(A)                                  Velocity(au)
C        -0.03919484     0.04477273    -0.09226707     0.00004724     0.00004597    -0.00058012
N        -0.04353900    -0.08826021     1.39370641     0.00005466    -0.00007986     0.00057268
H         0.93907759    -0.07308984    -0.58056213     0.00051427    -0.00000691    -0.00056829
H         0.88956245    -0.06947069     1.94507171    -0.00051604     0.00020786    -0.00048155
H        -0.93024310     0.13739735     1.83271908    -0.00059594     0.00021985     0.00064063
H        -1.03925606     0.02836438    -0.57316489    -0.00072478     0.00014124    -0.00063618
     6
  Step:    28            Position(A)                                  Velocity(au)
C        -0.03893440     0.04501880    -0.09547645     0.00004633     0.00004259    -0.00057521
N        -0.04319584    -0.08870394     1.39687636     0.00006745    -0.00007972     0.00056809
H         0.94185339    -0.07312374    -0.58371665     0.00048257    -0.00000506    -0.00056601
H         0.88624829    -0.06827843     1.94215928    -0.00066613     0.00022157    -0.00055980
H        -0.93370940     0.13862875     1.83645633    -0.00064244     0.00022124     0.00069964
H        -1.04312348     0.02920872    -0.57664291    -0.00066342     0.00016266    -0.00061405
     6
  Step:    29            Position(A)                                  Velocity(au)
C        -0.03868017     0.04524578    -0.09865637     0.00004501     0.00003908    -0.00056915
N        -0.04278979    -0.08914578     1.40001669     0.00007712    -0.00007913     0.00056164
H         0.94443793    -0.07314599    -0.58684930     0.00044545    -0.00000277    -0.00056021
H         0.88216324    -0.06700956     1.93885351    -0.00079153     0.00023536    -0.00062199
H        -0.93737922     0.13985488     1.84049051    -0.00066841     0.00021768     0.00074685
H        -1.04662524     0.03017123    -0.57998569    -0.00059347     0.00018367    -0.00058744
     6
  Step:    30            Position(A)                                  Velocity(au)
C        -0.03843428     0.04545302    -0.10180069     0.00004333     0.00003547    -0.00056199
N        -0.04233894    -0.08958320     1.40311721     0.00008341    -0.00007808     0.00055336
H         0.94680311    -0.07315447    -0.58994155     0.00040368    -0.00000015    -0.00055124
H         0.87745295    -0.06566311     1.93524782    -0.00088913     0.00024940    -0.00066660
H        -0.94113661     0.14104751     1.84475513    -0.00067349     0.00020899     0.00078200
H        -1.04971797     0.03124962    -0.58317045    -0.00051658     0.00020423    -0.00055712
     6
  Step:    31            Position(A)                                  Velocity(au)
C        -0.03819847     0.04564002    -0.10490344     0.00004139     0.00003178    -0.00055380
N        -0.04186257    -0.09001377     1.40616782     0.00008618    -0.00007663     0.00054329
H         0.94892529    -0.07314768    -0.59297697     0.00035814     0.00000267    -0.00053956
H         0.87227966    -0.06423719     1.93144352    -0.00095630     0.00026387    -0.00069246
H        -0.94486582     0.14217806     1.84918324    -0.00065818     0.00019525     0.00080527
H        -1.05236755     0.03244144    -0.58617871    -0.00043447     0.00022433    -0.00052392
     6
  Step:    32            Position(A)                                  Velocity(au)
C        -0.03797404     0.04580641    -0.10795907     0.00003924     0.00002804    -0.00054470
N        -0.04138058    -0.09043529     1.40915873     0.00008537    -0.00007480     0.00053155
H         0.95078571    -0.07312480    -0.59594157     0.00030973     0.00000557    -0.00052564
H         0.86681867    -0.06272880     1.92754754    -0.00099123     0.00027900    -0.00069887
H        -0.94845571     0.14321877     1.85370985    -0.00062368     0.00017670     0.00081723
H        -1.05454934     0.03374427    -0.58899654    -0.00034885     0.00024402    -0.00048867
     6
  Step:    33            Position(A)                                  Velocity(au)
C        -0.03776193     0.04595198    -0.11096258     0.00003697     0.00002429    -0.00053482
N        -0.04091289    -0.09084586     1.41208069     0.00008105    -0.00007268     0.00051827
H         0.95237067    -0.07308570    -0.59882409     0.00025936     0.00000843    -0.00051000
H         0.86125337    -0.06113364     1.92366940    -0.00099302     0.00029504    -0.00068570
H        -0.95180348     0.14414368     1.85827398    -0.00057177     0.00015374     0.00081881
H        -1.05624812     0.03515584    -0.59161461    -0.00026139     0.00026333    -0.00045221
     6
  Step:    34            Position(A)                                  Velocity(au)
C        -0.03756265     0.04607666    -0.11390973     0.00003465     0.00002054    -0.00052429
N        -0.04047883    -0.09124396     1.41492523     0.00007335    -0.00007033     0.00050360
H         0.95367148    -0.07303098    -0.60161607     0.00020791     0.00001112    -0.00049315
H         0.85576975    -0.05944602     1.91991807    -0.00096174     0.00031226    -0.00065335
H        -0.95481757     0.14492934     1.86282032    -0.00050468     0.00012685     0.00081113
H        -1.05745774     0.03667425    -0.59402811    -0.00017366     0.00028238    -0.00041534
     6
  Step:    35            Position(A)                                  Velocity(au)
C        -0.03737637     0.04618051    -0.11679700     0.00003233     0.00001681    -0.00051327
N        -0.04009663    -0.09162849     1.41768483     0.00006253    -0.00006783     0.00048774
H         0.95468428    -0.07296198    -0.60431192     0.00015620     0.00001350    -0.00047561
H         0.85055094    -0.05765875     1.91639887    -0.00089844     0.00033093    -0.00060276
H        -0.95741965     0.14555533     1.86730033    -0.00042489     0.00009662     0.00079550
H        -1.05818058     0.03829815    -0.59623656    -0.00008708     0.00030126    -0.00037879
     6
  Step:    36            Position(A)                                  Velocity(au)
C        -0.03720288     0.04626368    -0.11962164     0.00003008     0.00001311    -0.00050187
N        -0.03978293    -0.09199878     1.42035302     0.00004892    -0.00006525     0.00047088
H         0.95540972    -0.07288078    -0.60690886     0.00010499     0.00001544    -0.00045785
H         0.84577141    -0.05576324     1.91321030    -0.00080524     0.00035131    -0.00053544
H        -0.95954600     0.14600456     1.87167310    -0.00033507     0.00006363     0.00077334
H        -1.05842678     0.04002688    -0.59824350    -0.00000296     0.00032015    -0.00034325
     6
  Step:    37            Position(A)                                  Velocity(au)
C        -0.03704169     0.04632644    -0.12238158     0.00002794     0.00000947    -0.00049019
N        -0.03955222    -0.09235460     1.42292456     0.00003294    -0.00006268     0.00045322
H         0.95585257    -0.07279023    -0.60940671     0.00005497     0.00001679    -0.00044034
H         0.84159063    -0.05374958     1.91044069    -0.00068528     0.00037360    -0.00045347
H        -0.96114815     0.14626339     1.87590570    -0.00023793     0.00002850     0.00074606
H        -1.05821350     0.04186060    -0.60005612     0.00007754     0.00033919    -0.00030933
     6
  Step:    38            Position(A)                                  Velocity(au)
C        -0.03689199     0.04636909    -0.12507514     0.00002598     0.00000589    -0.00047826
N        -0.03941649    -0.09269609     1.42539530     0.00001505    -0.00006016     0.00043496
H         0.95602128    -0.07269397    -0.61180778     0.00000674     0.00001741    -0.00042347
H         0.83814746    -0.05160677     1.90816533    -0.00054269     0.00039800    -0.00035937
H        -0.96219306     0.14632159     1.87997324    -0.00013618    -0.00000820     0.00071507
H        -1.05756417     0.04380049    -0.60168488     0.00015337     0.00035858    -0.00027756
     6
  Step:    39            Position(A)                                  Velocity(au)
C        -0.03675272     0.04639197    -0.12770085     0.00002423     0.00000237    -0.00046611
N        -0.03938482    -0.09302371     1.42776219    -0.00000419    -0.00005776     0.00041626
H         0.95592754    -0.07259654    -0.61411656    -0.00003916     0.00001714    -0.00040761
H         0.83555478    -0.04932305     1.90644377    -0.00038251     0.00042459    -0.00025614
H        -0.96266280     0.14617222     1.88385878    -0.00003247    -0.00004590     0.00068175
H        -1.05650769     0.04584876    -0.60314316     0.00022363     0.00037852    -0.00024842
     6
  Step:    40            Position(A)                                  Velocity(au)
C        -0.03662261     0.04639543    -0.13025727     0.00002273    -0.00000109    -0.00045369
N        -0.03946306    -0.09333820     1.43002328    -0.00002420    -0.00005550     0.00039732
H         0.95558585    -0.07250339    -0.61633951    -0.00008227     0.00001579    -0.00039308
H         0.83389481    -0.04688621     1.90531763    -0.00021046     0.00045343    -0.00014709
H        -0.96255405     0.14581129     1.88755292     0.00007067    -0.00008410     0.00064740
H        -1.05507790     0.04800880    -0.60444681     0.00028747     0.00039921    -0.00022233
     6
  Step:    41            Position(A)                                  Velocity(au)
C        -0.03650014     0.04637981    -0.13274276     0.00002151    -0.00000450    -0.00044098
N        -0.03965371    -0.09364052     1.43217764    -0.00004435    -0.00005343     0.00037830
H         0.95501322    -0.07242110    -0.61848486    -0.00012217     0.00001313    -0.00038018
H         0.83321592    -0.04428402     1.90480916    -0.00003277     0.00048450    -0.00003574
H        -0.96187743     0.14523755     1.89105334     0.00017080    -0.00012237     0.00061321
H        -1.05331303     0.05028525    -0.60561391     0.00034413     0.00042090    -0.00019965
     6
  Step:    42            Position(A)                                  Velocity(au)
C        -0.03638362     0.04634546    -0.13515562     0.00002063    -0.00000784    -0.00042793
N        -0.03995576    -0.09393175     1.43422547    -0.00006404    -0.00005158     0.00035941
H         0.95422881    -0.07235754    -0.62056249    -0.00015848     0.00000890    -0.00036918
H         0.83353084    -0.04150446     1.90492066     0.00014417     0.00051772     0.00007435
H        -0.96065681     0.14445200     1.89436440     0.00026560    -0.00016033     0.00058034
H        -1.05125532     0.05268410    -0.60666447     0.00039290     0.00044382    -0.00018071
     6
  Step:    43            Position(A)                                  Velocity(au)
C        -0.03627115     0.04629278    -0.13749399     0.00002010    -0.00001111    -0.00041449
N        -0.04036477    -0.09421314     1.43616806    -0.00008266    -0.00004994     0.00034079
H         0.95325370    -0.07232227    -0.62258382    -0.00019086     0.00000275    -0.00036039
H         0.83481663    -0.03853592     1.90563470     0.00031407     0.00055304     0.00017973
H        -0.95892859     0.14345741     1.89749665     0.00035286    -0.00019773     0.00054985
H        -1.04895075     0.05521290    -0.60762030     0.00043310     0.00046829    -0.00016584
     6
  Step:    44            Position(A)                                  Velocity(au)
C        -0.03616061     0.04622217    -0.13975549     0.00001997    -0.00001431    -0.00040051
N        -0.04087305    -0.09448595     1.43800744    -0.00009963    -0.00004853     0.00032253
H         0.95211071    -0.07232704    -0.62456199    -0.00021901    -0.00000582    -0.00035414
H         0.83701632    -0.03536699     1.90691528     0.00047107     0.00059047     0.00027721
H        -0.95674093     0.14225761     1.90046648     0.00043051    -0.00023447     0.00052277
H        -1.04644896     0.05788107    -0.60850496     0.00046403     0.00049469    -0.00015539
     6