     6
  Step:   120            Position(A)                                  Velocity(au)
C        -0.03582069     0.05888650    -0.06589812     0.00004490    -0.00003918     0.00060353
N        -0.05319699    -0.00529563     1.38830805    -0.00006431    -0.00002624    -0.00053845
H         0.69555599    -0.66333754    -0.52092666    -0.00101713    -0.00118596     0.00052615
H         0.84142461    -0.03733279     1.95276895    -0.00019546     0.00159710    -0.00007756
H        -0.65100687    -0.82370078     1.65493903     0.00113335    -0.00099018    -0.00052476
H        -0.93283023     0.22649403    -0.70192090     0.00043793     0.00141053     0.00036702
