    14
  Step:   600            Position(A)                                  Velocity(au)
C        -5.12595464    -1.12489319     0.87053380    -0.00011366    -0.00032898    -0.00033654
C        -4.99688669    -0.20959636    -0.10197911     0.00014997     0.00000570     0.00072727
H        -4.25049079    -1.27207225     1.48785941    -0.00047018    -0.00018782     0.00228974
H        -6.03215611    -1.69251627     0.92432149     0.00008348    -0.00247756    -0.00121969
H        -5.96853155     0.08580976    -0.43650917    -0.00003629    -0.00017024    -0.00113922
C        -3.97958793     0.78454846    -0.73983339    -0.00065077     0.00082255    -0.00030816
C        -2.55051152     0.59996168    -0.65788105    -0.00032757    -0.00004758    -0.00053990
H        -4.32018701     1.79913064    -0.99672658    -0.00102552    -0.00001786    -0.00007886
H        -2.12495152    -0.34959846    -0.36538855     0.00217093    -0.00025075     0.00129525
C        -1.74147794     1.62795385    -0.24265174     0.00068432    -0.00083103     0.00005293
H        -1.53888379     2.73936851    -0.49770556     0.00012446    -0.00027579    -0.00191660
N        -1.06773822     1.36628974     0.91965279     0.00029127     0.00042201     0.00041863
H        -0.29674585     1.95102043     1.30447833     0.00000373     0.00080170    -0.00017395
H        -1.41508537     0.39848992     1.20198920    -0.00182742     0.00123407    -0.00005517
