    14
  Step:     0            Position(A)                                  Velocity(au)
C        -6.08166670    -0.73081793    -0.07680849    -0.00003035     0.00046188    -0.00023521
C        -4.70774211    -0.75025297     0.15810386     0.00031769    -0.00013706     0.00008641
H        -6.45943819     0.22736433    -0.48439777     0.00013373     0.00071771    -0.00011621
H        -6.79522639    -1.62387088     0.02460890    -0.00073099    -0.00040939     0.00052827
H        -4.18095958    -1.63469433     0.55378473    -0.00085981    -0.00057892    -0.00055683
C        -3.88756190     0.39961861    -0.12634285    -0.00002973    -0.00032603     0.00018022
C        -2.54799931     0.44145601     0.19525589     0.00000876    -0.00032732     0.00004050
H        -4.41763289     1.19133392    -0.56248490     0.00015548    -0.00014677    -0.00017038
H        -2.01528062    -0.37991220     0.69520772     0.00027041     0.00024958     0.00094638
C        -1.79197925     1.67717594    -0.04339489     0.00007918     0.00021011     0.00000542
H        -2.36097785     2.50009256    -0.44378538    -0.00000081    -0.00029685     0.00060528
N        -0.51341840     1.86930353     0.22798430    -0.00038922     0.00008186    -0.00010601
H        -0.07640101     2.80389058    -0.01177639     0.00080644     0.00024848    -0.00034375
H         0.07424412     1.22108581     0.80167181     0.00151666     0.00048971    -0.00034122
    14
  Step:     1            Position(A)                                  Velocity(au)
C        -6.08204852    -0.72580687    -0.07942145    -0.00003902     0.00045243    -0.00024150
C        -4.70422879    -0.75178932     0.15907320     0.00032053    -0.00014322     0.00008960
H        -6.45834132     0.23447914    -0.48532046     0.00006855     0.00057997    -0.00005255
H        -6.80182079    -1.62678629     0.03035791    -0.00046016    -0.00010150     0.00051686
H        -4.19088201    -1.64085498     0.54762882    -0.00094114    -0.00055687    -0.00056154
C        -3.88818422     0.39579908    -0.12434894    -0.00008373    -0.00037064     0.00018361
C        -2.54746202     0.43811196     0.19574800     0.00009073    -0.00028256     0.00004965
H        -4.41633140     1.19164491    -0.56521501     0.00009002     0.00018729    -0.00031948
H        -2.01279002    -0.37715293     0.70522137     0.00018247     0.00025544     0.00088144
C        -1.79147261     1.67924395    -0.04332451     0.00001117     0.00016439     0.00000799
H        -2.36090153     2.49732966    -0.43755907     0.00000291    -0.00019002     0.00052357
N        -0.51733007     1.87031467     0.22689227    -0.00032082     0.00010409    -0.00009254
H        -0.06838199     2.80459263    -0.01492323     0.00064253    -0.00013282    -0.00023070
H         0.08979514     1.22730084     0.79693655     0.00130217     0.00065231    -0.00053620
    14
  Step:     2            Position(A)                                  Velocity(au)
C        -6.08252044    -0.72092012    -0.08209170    -0.00004627     0.00043963    -0.00024568
C        -4.70072994    -0.75338629     0.16006397     0.00031515    -0.00014778     0.00009023
H        -6.45793850     0.24005228    -0.48554732     0.00000605     0.00043977     0.00000954
H        -6.80529321    -1.62609140     0.03591625    -0.00016806     0.00024052     0.00049446
H        -4.20154890    -1.64687694     0.54149997    -0.00099502    -0.00055490    -0.00055128
C        -3.88939376     0.39151008    -0.12232613    -0.00013775    -0.00041090     0.00018497
C        -2.54601453     0.43527437     0.19634206     0.00017493    -0.00023465     0.00005898
H        -4.41566349     1.19543115    -0.56947417     0.00004629     0.00047550    -0.00044283
H        -2.01128865    -0.37432404     0.71449092     0.00009210     0.00026082     0.00081181
C        -1.79173486     1.68077222    -0.04322016    -0.00006016     0.00011203     0.00001175
H        -2.36091425     2.49593554    -0.43233127    -0.00001497    -0.00005152     0.00042478
N        -0.52043692     1.87158075     0.22595971    -0.00024454     0.00012772    -0.00007740
H        -0.06234442     2.80098489    -0.01682342     0.00045287    -0.00052116    -0.00012040
H         0.10273157     1.23535644     0.78994148     0.00104862     0.00081592    -0.00074507
    14
  Step:     3            Position(A)                                  Velocity(au)
C        -6.08306066    -0.71618918    -0.08479607    -0.00005119     0.00042439    -0.00024779
C        -4.69733422    -0.75502229     0.16104714     0.00030219    -0.00014997     0.00008817
H        -6.45820886     0.24410004    -0.48511168    -0.00005531     0.00030492     0.00006721
H        -6.80549742    -1.62152447     0.04117528     0.00012996     0.00059683     0.00046331
H        -4.21264997    -1.65299455     0.53556846    -0.00102057    -0.00057438    -0.00052536
C        -3.89119786     0.38680989    -0.12030240    -0.00019319    -0.00044538     0.00018342
C        -2.54363499     0.43297851     0.19703831     0.00026116    -0.00018335     0.00006819
H        -4.41531872     1.20204733    -0.57490284     0.00003459     0.00069598    -0.00052846
H        -2.01077516    -0.37144689     0.72298129     0.00000443     0.00026281     0.00074053
C        -1.79278872     1.68169485    -0.04306747    -0.00013229     0.00005435     0.00001695
H        -2.36122899     2.49620260    -0.42826630    -0.00004884     0.00010695     0.00031369
N        -0.52267980     1.87310875     0.22519889    -0.00016559     0.00015122    -0.00006172
H        -0.05847449     2.79319118    -0.01755722     0.00025543    -0.00088005    -0.00002205
H         0.11273569     1.24515074     0.78063663     0.00077699     0.00096002    -0.00094932
    14
  Step:     4            Position(A)                                  Velocity(au)
C        -6.08364040    -0.71163575    -0.08751250    -0.00005349     0.00040765    -0.00024803
C        -4.69411905    -0.75666720     0.16199277     0.00028318    -0.00014896     0.00008338
H        -6.45914842     0.24672288    -0.48407689    -0.00011697     0.00018278     0.00011786
H        -6.80245010    -1.61303457     0.04605211     0.00041912     0.00094825     0.00042596
H        -4.22387585    -1.65944253     0.53000666    -0.00101884    -0.00061382    -0.00048412
C        -3.89362026     0.38176651    -0.11831351    -0.00025172    -0.00047383     0.00017845
C        -2.54030106     0.43126321     0.19783382     0.00034983    -0.00012822     0.00007701
H        -4.41490673     1.21065704    -0.58103517     0.00005893     0.00083624    -0.00056919
H        -2.01119166    -0.36857465     0.73069143    -0.00007550     0.00025863     0.00067071
C        -1.79462891     1.68196113    -0.04284937    -0.00020273    -0.00000730     0.00002384
H        -2.36198270     2.49827532    -0.42546878    -0.00009086     0.00027071     0.00019614
N        -0.52405960     1.87488891     0.22460951    -0.00008962     0.00017304    -0.00004662
H        -0.05675632     2.78173204    -0.01730589     0.00006918    -0.00117334     0.00005507
H         0.11972962     1.25635868     0.76917319     0.00050987     0.00106449    -0.00113091
    14
  Step:     5            Position(A)                                  Velocity(au)
C        -6.08423085    -0.70727109    -0.09022210    -0.00005348     0.00039044    -0.00024679
C        -4.69113906    -0.75828110     0.16287133     0.00026077    -0.00014384     0.00007600
H        -6.46076785     0.24809876    -0.48253316    -0.00018013     0.00007995     0.00015925
H        -6.79632831    -1.60077960     0.05049396     0.00068445     0.00127528     0.00038545
H        -4.23493907    -1.66642305     0.52497733    -0.00099269    -0.00066875    -0.00042896
C        -3.89670471     0.37644396    -0.11639843    -0.00031511    -0.00049712     0.00016999
C        -2.53598180     0.43017350     0.19872303     0.00044178    -0.00006871     0.00008523
H        -4.41402953     1.22034175    -0.58735503     0.00011731     0.00089321    -0.00056276
H        -2.01242678    -0.36578894     0.73765447    -0.00014301     0.00024595     0.00060537
C        -1.79722373     1.68153505    -0.04254599    -0.00026921    -0.00007156     0.00003263
H        -2.36321664     2.50212498    -0.42397541    -0.00013211     0.00042368     0.00007837
N        -0.52464043     1.87689429     0.22417907    -0.00002229     0.00019163    -0.00003314
H        -0.05696107     2.76752216    -0.01635254    -0.00008632    -0.00136575     0.00010175
H         0.12389017     1.26843854     0.75589590     0.00027066     0.00111026    -0.00127285
    14
  Step:     6            Position(A)                                  Velocity(au)
C        -6.08481045    -0.70309410    -0.09291153    -0.00005192     0.00037402    -0.00024465
C        -4.68841419    -0.75981408     0.16365541     0.00023812    -0.00013407     0.00006632
H        -6.46308911     0.24847200    -0.48059308    -0.00024552     0.00000176     0.00018951
H        -6.78747637    -1.58513531     0.05448447     0.00091015     0.00155731     0.00034551
H        -4.24559277    -1.67407272     0.52062235    -0.00094641    -0.00073200    -0.00036238
C        -3.90051381     0.37089105    -0.11459459    -0.00038397    -0.00051659     0.00015842
C        -2.53063632     0.42976007     0.19969835     0.00053690    -0.00000478     0.00009262
H        -4.41234040     1.23019769    -0.59334659     0.00020334     0.00087128    -0.00051092
H        -2.01432039    -0.36319413     0.74393500    -0.00019399     0.00022302     0.00054718
C        -1.80051838     1.68039560    -0.04213556    -0.00032983    -0.00013675     0.00004329
H        -2.36487281     2.50754404    -0.42375419    -0.00016416     0.00055022    -0.00003339
N        -0.52454727     1.87908109     0.22388452     0.00003139     0.00020554    -0.00002210
H        -0.05864473     2.75185365    -0.01507992    -0.00019245    -0.00142559     0.00010952
H         0.12565080     1.28064772     0.74132710     0.00008182     0.00108061    -0.00136038
    14
  Step:     7            Position(A)                                  Velocity(au)
C        -6.08536660    -0.69908871    -0.09557419    -0.00004901     0.00035987    -0.00024213
C        -4.68592970    -0.76121407     0.16432230     0.00021733    -0.00012031     0.00005492
H        -6.46613900     0.24813717    -0.47838728    -0.00031329    -0.00004813     0.00020726
H        -6.77641714    -1.56671056     0.05805263     0.00107920     0.00177223     0.00031079
H        -4.25564361    -1.68243688     0.51704950    -0.00088520    -0.00079462    -0.00028813
C        -3.90510483     0.36514254    -0.11293270    -0.00045556    -0.00053274     0.00014454
C        -2.52423603     0.43006901     0.20074931     0.00063199     0.00006222     0.00009885
H        -4.40958115     1.23940274    -0.59853235     0.00030816     0.00077968    -0.00041867
H        -2.01667078    -0.36091000     0.74962501    -0.00022509     0.00018887     0.00049823
C        -1.80443931     1.67854338    -0.04159885    -0.00038302    -0.00020025     0.00005528
H        -2.36680801     2.51416215    -0.42470594    -0.00018062     0.00063707    -0.00013318
N        -0.52395366     1.88139093     0.22369559     0.00006803     0.00021372    -0.00001395
H        -0.06117133     2.73633454    -0.01395654    -0.00023471    -0.00133033     0.00007202
H         0.12568016     1.29207893     0.72613507    -0.00003794     0.00096359    -0.00138267
    14
  Step:     8            Position(A)                                  Velocity(au)
C        -6.08588253    -0.69522131    -0.09820854    -0.00004350     0.00034966    -0.00023958
C        -4.68365963    -0.76244607     0.16485689     0.00019799    -0.00010494     0.00004255
H        -6.46994298     0.24741913    -0.47605881    -0.00038299    -0.00006795     0.00021173
H        -6.76386678    -1.54636437     0.06128362     0.00117385     0.00189706     0.00028682
H        -4.26495828    -1.69145663     0.51431896    -0.00081445    -0.00084707    -0.00021092
C        -3.91048005     0.35923635    -0.11143255    -0.00052336    -0.00054445     0.00012937
C        -2.51681034     0.43112121     0.20186097     0.00072059     0.00012931     0.00010352
H        -4.40559889     1.24725478    -0.60250588     0.00042203     0.00063016    -0.00029346
H        -2.01924457    -0.35906227     0.75483482    -0.00023408     0.00014363     0.00045963
C        -1.80889758     1.67601482    -0.04092623    -0.00042748    -0.00025847     0.00006754
H        -2.36882423     2.52148122    -0.42666781    -0.00017808     0.00067482    -0.00021574
N        -0.52305903     1.88375668     0.22357930     0.00008640     0.00021581    -0.00000876
H        -0.06377942     2.72275007    -0.01350427    -0.00020682    -0.00107409    -0.00001293
H         0.12482083     1.30172815     0.71107861    -0.00007754     0.00075508    -0.00133543
    14
  Step:     9            Position(A)                                  Velocity(au)
C        -6.08631827    -0.69143914    -0.10081549    -0.00003302     0.00034512    -0.00023721
C        -4.68159821    -0.76350987     0.16525307     0.00017780    -0.00009120     0.00002997
H        -6.47451774     0.24665059    -0.47375537    -0.00045354    -0.00005808     0.00020302
H        -6.75073687    -1.52520869     0.06432729     0.00117739     0.00191020     0.00027954
H        -4.27346131    -1.70096811     0.51243522    -0.00073916    -0.00088014    -0.00013559
C        -3.91655424     0.35323156    -0.11010247    -0.00058000    -0.00054979     0.00011383
C        -2.50847171     0.43289800     0.20301399     0.00079599     0.00019298     0.00010638
H        -4.40034838     1.25318870    -0.60495226     0.00053531     0.00043580    -0.00014412
H        -2.02179179    -0.35776772     0.75968021    -0.00022026     0.00008898     0.00043105
C        -1.81379119     1.67288893    -0.04012124    -0.00046214    -0.00030790     0.00007901
H        -2.37070384     2.52892513    -0.42942560    -0.00015617     0.00065876    -0.00027751
N        -0.52206345     1.88611219     0.22350384     0.00008752     0.00021247    -0.00000633
H        -0.06569602     2.71283668    -0.01423949    -0.00011470    -0.00067469    -0.00014107
H         0.12398378     1.30859771     0.69691995    -0.00003718     0.00046155    -0.00122335
    14
  Step:    10            Position(A)                                  Velocity(au)
C        -6.08660496    -0.68767119    -0.10339806    -0.00001542     0.00034762    -0.00023526
C        -4.67976987    -0.76444122     0.16551264     0.00015437    -0.00008194     0.00001785
H        -6.47986504     0.24614853    -0.47161733    -0.00052324    -0.00002104     0.00018231
H        -6.73810910    -1.50457517     0.06739911     0.00107780     0.00179608     0.00029435
H        -4.28112872    -1.71071145     0.51135277    -0.00066353    -0.00088607    -0.00006611
C        -3.92316870     0.34720871    -0.10894227    -0.00062027    -0.00054722     0.00009855
C        -2.49939661     0.43534308     0.20418822     0.00085384     0.00025013     0.00010758
H        -4.39388791     1.25678876    -0.60565874     0.00063892     0.00021061     0.00001999
H        -2.02406319    -0.35711567     0.76426476    -0.00018445     0.00002825     0.00041065
C        -1.81900774     1.66927893    -0.03919783    -0.00048620    -0.00034601     0.00008890
H        -2.37224078     2.53589274    -0.43273885    -0.00011709     0.00058883    -0.00031733
N        -0.52114433     1.88840488     0.22344076     0.00007447     0.00020545    -0.00000627
H        -0.06628872     2.70798997    -0.01659036     0.00002194    -0.00017609    -0.00030030
H         0.12400752     1.31182537     0.68431547     0.00006936     0.00010184    -0.00106126
    14
  Step:    11            Position(A)                                  Velocity(au)
C        -6.08665561    -0.68383428    -0.10596225     0.00001011     0.00035769    -0.00023395
C        -4.67822116    -0.76530252     0.16564349     0.00012613    -0.00007917     0.00000664
H        -6.48596465     0.24619020    -0.46976688    -0.00058973     0.00003850     0.00015167
H        -6.72715788    -1.48591607     0.07076684     0.00087308     0.00155190     0.00033445
H        -4.28797736    -1.72035258     0.51098900    -0.00059073    -0.00085955    -0.00000522
C        -3.93012379     0.34126009    -0.10794658    -0.00064151    -0.00053608     0.00008391
C        -2.48979235     0.43837008     0.20536745     0.00089236     0.00029822     0.00010763
H        -4.38637070     1.25779629    -0.60451494     0.00072467    -0.00003080     0.00018962
H        -2.02582693    -0.35714960     0.76866390    -0.00012885    -0.00003371     0.00039531
C        -1.82442776     1.66531934    -0.03817636    -0.00049914    -0.00037125     0.00009676
H        -2.37326531     2.54180690    -0.43636776    -0.00006498     0.00046914    -0.00033623
N        -0.52043422     1.89060671     0.22336662     0.00005213     0.00019720    -0.00000806
H        -0.06521600     2.70898445    -0.02080904     0.00017213     0.00035694    -0.00047166
H         0.12550118     1.31082568     0.67370296     0.00021521    -0.00029342    -0.00087282
    14
  Step:    12            Position(A)                                  Velocity(au)
C        -6.08638372    -0.67984604    -0.10851618     0.00004258     0.00037441    -0.00023333
C        -4.67701063    -0.76617327     0.16565801     0.00009233    -0.00008406    -0.00000329
H        -6.49276661     0.24699073    -0.46829935    -0.00065000     0.00011411     0.00011379
H        -6.71900888    -1.47062442     0.07471575     0.00057628     0.00119397     0.00039886
H        -4.29405203    -1.72951569     0.51123856    -0.00052271    -0.00079842     0.00004561
C        -3.93720298     0.33548090    -0.10710656    -0.00064286    -0.00051644     0.00007022
C        -2.47987445     0.44186726     0.20654289     0.00091138     0.00033506     0.00010731
H        -4.37803440     1.25611505    -0.60151035     0.00078531    -0.00027332     0.00035573
H        -2.02688204    -0.35785308     0.77291300    -0.00005667    -0.00009112     0.00038111
C        -1.82992741     1.66115702    -0.03708098    -0.00050066    -0.00038276     0.00010230
H        -2.37366231     2.54615607    -0.44009446    -0.00000531     0.00030710    -0.00033685
N        -0.52000397     1.89271909     0.22326440     0.00002634     0.00019027    -0.00001108
H        -0.06252312     2.71579876    -0.02690891     0.00030061     0.00085198    -0.00063289
H         0.12871566     1.30540635     0.66522095     0.00036502    -0.00068588    -0.00068631
    14
  Step:    13            Position(A)                                  Velocity(au)
C        -6.08572414    -0.67564333    -0.11106686     0.00007918     0.00039519    -0.00023310
C        -4.67620126    -0.76714147     0.16557149     0.00005283    -0.00009704    -0.00001176
H        -6.50018472     0.24868647    -0.46727741    -0.00070060     0.00019819     0.00007180
H        -6.71455059    -1.45979577     0.07949265     0.00021740     0.00075991     0.00048111
H        -4.29941264    -1.73781947     0.51198681    -0.00046038    -0.00070382     0.00008606
C        -3.94418760     0.32996208    -0.10641034    -0.00062457    -0.00048896     0.00005777
C        -2.46985409     0.44570016     0.20771516     0.00091163     0.00035873     0.00010751
H        -4.36919064     1.25181684    -0.59673270     0.00081456    -0.00050131     0.00050937
H        -2.02706678    -0.35914304     0.77700134     0.00002838    -0.00013803     0.00036384
C        -1.83538057     1.65694576    -0.03593833    -0.00049062    -0.00038008     0.00010534
H        -2.37338143     2.54852520    -0.44373709     0.00005590     0.00011243    -0.00032290
N        -0.51985807     1.89476914     0.22312418     0.00000271     0.00018648    -0.00001469
H        -0.05863954     2.72762314    -0.03465474     0.00037696     0.00124550    -0.00076339
H         0.13348671     1.29582068     0.65868864     0.00048250    -0.00103625    -0.00052877
    14
  Step:    14            Position(A)                                  Velocity(au)
C        -6.08465143    -0.67120040    -0.11361560     0.00011581     0.00041613    -0.00023254
C        -4.67585482    -0.76829610     0.16540068     0.00000795    -0.00011786    -0.00001871
H        -6.50809364     0.25132642    -0.46672852    -0.00073793     0.00028272     0.00002889
H        -6.71425277    -1.45399987     0.08524092    -0.00016044     0.00030377     0.00056944
H        -4.30412366    -1.74491310     0.51312131    -0.00040376    -0.00057994     0.00011679
C        -3.95086658     0.32478387    -0.10584271    -0.00058762    -0.00045492     0.00004691
C        -2.45993069     0.44971518     0.20889481     0.00089438     0.00036770     0.00010907
H        -4.36021430     1.24514801    -0.59036692     0.00080716    -0.00069864     0.00064178
H        -2.02626123    -0.36087276     0.78087261     0.00012258    -0.00016914     0.00033968
C        -1.84066061     1.65284206    -0.03477650    -0.00046907    -0.00036317     0.00010579
H        -2.37243937     2.54861561    -0.44715843     0.00011256    -0.00010356    -0.00029871
N        -0.51994472     1.89679874     0.22294312    -0.00001451     0.00018663    -0.00001829
H        -0.05427637     2.74304638    -0.04360947     0.00038244     0.00149555    -0.00084853
H         0.13927134     1.28273635     0.65365303     0.00053840    -0.00131155    -0.00042060
    14
  Step:    15            Position(A)                                  Velocity(au)
C        -6.08319054    -0.66653961    -0.11615420     0.00014791     0.00043293    -0.00023076
C        -4.67602732    -0.76971981     0.16516218    -0.00004161    -0.00014564    -0.00002422
H        -6.51632836     0.25487154    -0.46664535    -0.00075852     0.00035998    -0.00001191
H        -6.71806060    -1.45315017     0.09195034    -0.00051022    -0.00011579     0.00064923
H        -4.30824560    -1.75050674     0.51454176    -0.00035224    -0.00043342     0.00013924
C        -3.95704287     0.32000976    -0.10538410    -0.00053352    -0.00041609     0.00003808
C        -2.45028784     0.45374432     0.21010129     0.00086119     0.00036096     0.00011273
H        -4.35153252     1.23653279    -0.58269262     0.00075896    -0.00084929     0.00074463
H        -2.02438507    -0.36284333     0.78443250     0.00022258    -0.00018056     0.00030575
C        -1.84564243     1.64900069    -0.03362387    -0.00043626    -0.00033243     0.00010370
H        -2.37091896     2.54625961    -0.45027198     0.00015880    -0.00032848    -0.00026912
N        -0.52017560     1.89885195     0.22272408    -0.00002305     0.00019044    -0.00002146
H        -0.05027300     2.76034111    -0.05321790     0.00031227     0.00158637    -0.00088164
H         0.14526521     1.26712798     0.64948723     0.00051594    -0.00149046    -0.00037241
    14
  Step:    16            Position(A)                                  Velocity(au)
C        -6.08141569    -0.66172925    -0.11866390     0.00017150     0.00044201    -0.00022688
C        -4.67676511    -0.77148235     0.16487089    -0.00009483    -0.00017897    -0.00002850
H        -6.52468762     0.25920172    -0.46698913    -0.00075936     0.00042319    -0.00004800
H        -6.72541478    -1.45653311     0.09944403    -0.00079199    -0.00044939     0.00070657
H        -4.31182954    -1.75439498     0.51616736    -0.00030481    -0.00027272     0.00015542
C        -3.96253844     0.31568120    -0.10500966    -0.00046418    -0.00037463     0.00003179
C        -2.44109058     0.45761194     0.21136096     0.00081382     0.00033819     0.00011898
H        -4.34361070     1.22656819    -0.57407682     0.00066724    -0.00093824     0.00081053
H        -2.02139178    -0.36482277     0.78756158     0.00032563    -0.00017031     0.00026049
C        -1.85020456     1.64556952    -0.03250781    -0.00039261    -0.00028876     0.00009923
H        -2.36896527     2.54142943    -0.45304585     0.00018917    -0.00054933    -0.00023922
N        -0.52044890     1.90096502     0.22247361    -0.00002255     0.00019698    -0.00002398
H        -0.04744482     2.77775135    -0.06289705     0.00017368     0.00152519    -0.00086348
H         0.15055850     1.25012961     0.64550583     0.00041209    -0.00156497    -0.00038504
    14
  Step:    17            Position(A)                                  Velocity(au)
C        -6.07943857    -0.65686985    -0.12111755     0.00018397     0.00044129    -0.00022032
C        -4.67810199    -0.77363510     0.16453867    -0.00015048    -0.00021596    -0.00003189
H        -6.53294076     0.26412965    -0.46769537    -0.00073822     0.00046708    -0.00007736
H        -6.73538696    -1.46298152     0.10740790    -0.00098083    -0.00066663     0.00073157
H        -4.31491397    -1.75647299     0.51794192    -0.00026027    -0.00010745     0.00016775
C        -3.96719777     0.31181393    -0.10468873    -0.00038179    -0.00033293     0.00002852
C        -2.43248390     0.46114293     0.21270415     0.00075417     0.00029985     0.00012804
H        -4.33693539     1.21600699    -0.56496067     0.00053127    -0.00095336     0.00083400
H        -2.01726131    -0.36656917     0.79013113     0.00042963    -0.00013860     0.00020378
C        -1.85423143     1.64268356    -0.03145300    -0.00033877    -0.00023363     0.00009271
H        -2.36678046     2.53424192    -0.45550528     0.00019874    -0.00075289    -0.00021428
N        -0.52066883     1.90316123     0.22219958    -0.00001417     0.00020502    -0.00002580
H        -0.04647349     2.79370757    -0.07210826    -0.00001844     0.00133472    -0.00080017
H         0.15428047     1.23289127     0.64106381     0.00023537    -0.00153887    -0.00045165
    14
  Step:    18            Position(A)                                  Velocity(au)
C        -6.07739095    -0.65207509    -0.12348387     0.00018423     0.00043036    -0.00021092
C        -4.68005710    -0.77620687     0.16417322    -0.00020716    -0.00025444    -0.00003480
H        -6.54083758     0.26942006    -0.46868155    -0.00069386     0.00048831    -0.00009876
H        -6.74687223    -1.47111691     0.11544855    -0.00106868    -0.00075826     0.00071979
H        -4.31752336    -1.75674572     0.51983723    -0.00021730     0.00005222     0.00017885
C        -3.97089083     0.30839765    -0.10438563    -0.00028879    -0.00029321     0.00002866
C        -2.42459169     0.46417184     0.21416197     0.00068419     0.00024725     0.00013982
H        -4.33198809     1.20571153    -0.55583153     0.00035304    -0.00088803     0.00081266
H        -2.01199270    -0.36785485     0.79201973     0.00053315    -0.00008774     0.00013700
C        -1.85761572     1.64045840    -0.03047962    -0.00027560    -0.00016912     0.00008463
H        -2.36461755     2.52495858    -0.45773359     0.00018317    -0.00092618    -0.00019957
N        -0.52075897     1.90545019     0.22190910    -0.00000003     0.00021337    -0.00002707
H        -0.04784825     2.80695097    -0.08040234    -0.00024559     0.00104584    -0.00070093
H         0.15570777     1.21646379     0.63562502     0.00000203    -0.00142462    -0.00056074
    14
  Step:    19            Position(A)                                  Velocity(au)
C        -6.07540813    -0.64745498    -0.12573191     0.00017253     0.00041003    -0.00019885
C        -4.68263399    -0.77920155     0.16377730    -0.00026345    -0.00029211    -0.00003770
H        -6.54812018     0.27481229    -0.46985600    -0.00062616     0.00048561    -0.00011177
H        -6.75876632    -1.47956985     0.12315472    -0.00106125    -0.00073198     0.00067179
H        -4.31966782    -1.75533053     0.52185457    -0.00017465     0.00019620     0.00019141
C        -3.97351554     0.30539946    -0.10406184    -0.00018784    -0.00025717     0.00003226
C        -2.41751603     0.46655209     0.21576290     0.00060589     0.00018252     0.00015394
H        -4.32921189     1.19657956    -0.54718217     0.00013803    -0.00074402     0.00074861
H        -2.00559761    -0.36848871     0.79312836     0.00063526    -0.00002192     0.00006275
C        -1.86026069     1.63898379    -0.02960156    -0.00020420    -0.00009785     0.00007564
H        -2.36277331     2.51397986    -0.45987123     0.00013894    -0.00105716    -0.00020011
N        -0.52066941     1.90782913     0.22160731     0.00001735     0.00022101    -0.00002799
H        -0.05184616     2.81658734    -0.08744236    -0.00048851     0.00069231    -0.00057637
H         0.15432493     1.20172508     0.62879648    -0.00026769    -0.00123996    -0.00069869
    14
  Step:    20            Position(A)                                  Velocity(au)
C        -6.07361658    -0.64310490    -0.12783418     0.00014999     0.00038185    -0.00018450
C        -4.68582051    -0.78259736     0.16334839    -0.00031794    -0.00032668    -0.00004107
H        -6.55453600     0.28004365    -0.47112680    -0.00053621     0.00045984    -0.00011676
H        -6.77008902    -1.48713038     0.13014530    -0.00097268    -0.00060571     0.00059161
H        -4.32134419    -1.75245353     0.52402469    -0.00013121     0.00031505     0.00020802
C        -3.97500021     0.30277165    -0.10367982    -0.00008182    -0.00022568     0.00003904
C        -2.41133659     0.46816474     0.21752979     0.00052136     0.00010849     0.00016979
H        -4.32896834     1.18943459    -0.53945426    -0.00010423    -0.00053369     0.00064924
H        -1.99809525    -0.36833444     0.79339247     0.00073541     0.00005327    -0.00001546
C        -1.86208293     1.63831782    -0.02882495    -0.00012590    -0.00002287     0.00006647
H        -2.36157804     2.50183126    -0.46211136     0.00006371    -0.00113572    -0.00022019
N        -0.52037946     1.91028527     0.22129679     0.00003525     0.00022710    -0.00002878