 Fermi distribution function

Calculation with static geometry


********************************************************************************
 iSCC Total electronic   Diff electronic      SCC error    
    9   -0.54464314E+01   -0.11660894E-10    0.12043876E-06
********************************************************************************

 Total charge:     1.00000000

 Atomic gross charges (e)
 Atom           Charge
    1       0.24529155
    2      -0.12749038
    3       0.14770146
    4       0.29843060
    5       0.28369286
    6       0.15237391

Nr. of electrons (up):     12.00000000
Atom populations (up)
 Atom       Population
    1       3.75470845
    2       5.12749038
    3       0.85229854
    4       0.70156940
    5       0.71630714
    6       0.84762609

l-shell populations (up)
 Atom Sh.   l       Population
    1   1   0       1.27084058
    1   2   1       2.48386787
    2   1   0       1.39401833
    2   2   1       3.73347206
    3   1   0       0.85229854
    4   1   0       0.70156940
    5   1   0       0.71630714
    6   1   0       0.84762609

Orbital populations (up)
 Atom Sh.   l   m       Population  Label
    1   1   0   0       1.27084058  s
    1   2   1  -1       0.57308465  p_y
    1   2   1   0       0.89951573  p_z
    1   2   1   1       1.01126749  p_x
    2   1   0   0       1.39401833  s
    2   2   1  -1       1.32474648  p_y
    2   2   1   0       1.09115098  p_z
    2   2   1   1       1.31757460  p_x
    3   1   0   0       0.85229854  s
    4   1   0   0       0.70156940  s
    5   1   0   0       0.71630714  s
    6   1   0   0       0.84762609  s

Fermi level:                        -0.4758102060 H          -12.9475 eV
Band energy:                        -8.9567080414 H         -243.7244 eV
TS:                                  0.0000000000 H            0.0000 eV
Band free energy (E-TS):            -8.9567080414 H         -243.7244 eV
Extrapolated E(0K):                 -8.9567080414 H         -243.7244 eV
Input / Output electrons (q):     12.0000000000     12.0000000000

Energy H0:                          -5.5795367703 H         -151.8269 eV
Energy SCC:                          0.1331054080 H            3.6220 eV
Total Electronic energy:            -5.4464313623 H         -148.2049 eV
Repulsive energy:                    0.2319178394 H            6.3108 eV
Total energy:                       -5.2145135229 H         -141.8941 eV
Extrapolated to 0:                  -5.2145135229 H         -141.8941 eV
Total Mermin free energy:           -5.2145135229 H         -141.8941 eV
Force related energy:               -5.2145135229 H         -141.8941 eV

SCC converged

Excitation Energy:                   0.1165427456 H            3.1713 eV

Total Forces
    1     -0.002225632908      0.004454617709     -0.059205634329
    2      0.006508227857     -0.009665867837      0.050847130301
    3     -0.000440098479      0.014849588186      0.003271562730
    4     -0.013267564333     -0.006601732948      0.000074724854
    5      0.008036899055      0.012343806277      0.004940560750
    6      0.001388168807     -0.015380411387      0.000071655692

Maximal derivative component:        0.592056E-01 au


