 Fermi distribution function

Calculation with static geometry


********************************************************************************
 iSCC Total electronic   Diff electronic      SCC error    
   10   -0.54018934E+01   -0.67412742E-12    0.40686711E-06
********************************************************************************

 Total charge:     1.00000000

 Atomic gross charges (e)
 Atom           Charge
    1       0.19901998
    2      -0.09269025
    3       0.18792292
    4       0.28506197
    5       0.27507166
    6       0.14561373

Nr. of electrons (up):     12.00000000
Atom populations (up)
 Atom       Population
    1       3.80098002
    2       5.09269025
    3       0.81207708
    4       0.71493803
    5       0.72492834
    6       0.85438627

l-shell populations (up)
 Atom Sh.   l       Population
    1   1   0       1.31809981
    1   2   1       2.48288021
    2   1   0       1.42712814
    2   2   1       3.66556211
    3   1   0       0.81207708
    4   1   0       0.71493803
    5   1   0       0.72492834
    6   1   0       0.85438627

Orbital populations (up)
 Atom Sh.   l   m       Population  Label
    1   1   0   0       1.31809981  s
    1   2   1  -1       0.58882094  p_y
    1   2   1   0       0.88313354  p_z
    1   2   1   1       1.01092573  p_x
    2   1   0   0       1.42712814  s
    2   2   1  -1       1.34877645  p_y
    2   2   1   0       1.09505854  p_z
    2   2   1   1       1.22172712  p_x
    3   1   0   0       0.81207708  s
    4   1   0   0       0.71493803  s
    5   1   0   0       0.72492834  s
    6   1   0   0       0.85438627  s

Fermi level:                        -0.4913539540 H          -13.3704 eV
Band energy:                        -8.8964201859 H         -242.0839 eV
TS:                                  0.0000000000 H            0.0000 eV
Band free energy (E-TS):            -8.8964201859 H         -242.0839 eV
Extrapolated E(0K):                 -8.8964201859 H         -242.0839 eV
Input / Output electrons (q):     12.0000000000     12.0000000000

Energy H0:                          -5.5343654286 H         -150.5977 eV
Energy SCC:                          0.1324720381 H            3.6047 eV
Total Electronic energy:            -5.4018933905 H         -146.9930 eV
Repulsive energy:                    0.1854164219 H            5.0454 eV
Total energy:                       -5.2164769686 H         -141.9476 eV
Extrapolated to 0:                  -5.2164769686 H         -141.9476 eV
Total Mermin free energy:           -5.2164769686 H         -141.9476 eV
Force related energy:               -5.2164769686 H         -141.9476 eV

SCC converged

Excitation Energy:                   0.1273657676 H            3.4658 eV

Total Forces
    1      0.010305152057     -0.015057067770      0.033285464854
    2     -0.005619113374      0.008527389696     -0.042382087012
    3     -0.013445786887     -0.001358104183      0.003477955308
    4     -0.007004442284      0.007105358220      0.007378534996
    5      0.013390705502     -0.006884555439     -0.002742803234
    6      0.002373484987      0.007666979477      0.000982935088

Maximal derivative component:        0.423821E-01 au


