 Fermi distribution function

Calculation with static geometry


********************************************************************************
 iSCC Total electronic   Diff electronic      SCC error    
   14   -0.52482179E+01   -0.16333601E-11    0.14224986E-06
********************************************************************************

 Total charge:     1.00000000

 Atomic gross charges (e)
 Atom           Charge
    1       0.31645325
    2      -0.19941906
    3       0.18868271
    4       0.26268151
    5       0.25278662
    6       0.17881496

Nr. of electrons (up):     12.00000000
Atom populations (up)
 Atom       Population
    1       3.68354675
    2       5.19941906
    3       0.81131729
    4       0.73731849
    5       0.74721338
    6       0.82118504

l-shell populations (up)
 Atom Sh.   l       Population
    1   1   0       1.42320167
    1   2   1       2.26034508
    2   1   0       1.54320741
    2   2   1       3.65621165
    3   1   0       0.81131729
    4   1   0       0.73731849
    5   1   0       0.74721338
    6   1   0       0.82118504

Orbital populations (up)
 Atom Sh.   l   m       Population  Label
    1   1   0   0       1.42320167  s
    1   2   1  -1       0.39789118  p_y
    1   2   1   0       0.86882107  p_z
    1   2   1   1       0.99363283  p_x
    2   1   0   0       1.54320741  s
    2   2   1  -1       1.39301270  p_y
    2   2   1   0       1.06289209  p_z
    2   2   1   1       1.20030686  p_x
    3   1   0   0       0.81131729  s
    4   1   0   0       0.73731849  s
    5   1   0   0       0.74721338  s
    6   1   0   0       0.82118504  s

Fermi level:                        -0.5203801372 H          -14.1603 eV
Band energy:                        -8.6279687476 H         -234.7790 eV
TS:                                  0.0000000000 H            0.0000 eV
Band free energy (E-TS):            -8.6279687476 H         -234.7790 eV
Extrapolated E(0K):                 -8.6279687476 H         -234.7790 eV
Input / Output electrons (q):     12.0000000000     12.0000000000

Energy H0:                          -5.3855722296 H         -146.5489 eV
Energy SCC:                          0.1373543212 H            3.7376 eV
Total Electronic energy:            -5.2482179083 H         -142.8113 eV
Repulsive energy:                    0.1305796679 H            3.5533 eV
Total energy:                       -5.1176382405 H         -139.2580 eV
Extrapolated to 0:                  -5.1176382405 H         -139.2580 eV
Total Mermin free energy:           -5.1176382405 H         -139.2580 eV
Force related energy:               -5.1176382405 H         -139.2580 eV

SCC converged

Excitation Energy:                   0.0892327480 H            2.4281 eV

Total Forces
    1      0.001651064022      0.001506618376      0.027067838563
    2      0.018939800857      0.020415965061     -0.030705844034
    3     -0.000156535016     -0.009556990973     -0.002699241700
    4     -0.011017772357     -0.007562806505     -0.004448350282
    5     -0.012039759485     -0.009379359465      0.009411628868
    6      0.002623201979      0.004576573507      0.001373968586

Maximal derivative component:        0.307058E-01 au


