     6
  Step:     0            Position(A)                                  Velocity(au)
C        -0.03249900     0.01395185     0.00803968     0.00007003    -0.00007788     0.00018617
N        -0.05160363    -0.04924276     1.30635803     0.00011708    -0.00003469    -0.00012997
H         0.91934408     0.01505770    -0.53245501    -0.00071463     0.00032897     0.00014582
H         0.86170536    -0.16264008     1.83976288    -0.00109580     0.00044072    -0.00060434
H        -0.89927418    -0.06104082     1.83450198    -0.00053295     0.00023915    -0.00011896
H        -0.99035063     0.05688862    -0.49918078    -0.00011807     0.00040130     0.00016511
     6
  Step:     1            Position(A)                                  Velocity(au)
C        -0.03169055     0.01310946     0.00977909     0.00007506    -0.00007609     0.00012968
N        -0.05012566    -0.04963903     1.30528226     0.00014674    -0.00003749    -0.00006510
H         0.91204322     0.01874448    -0.53179514    -0.00059896     0.00034584    -0.00003765
H         0.84850048    -0.15778928     1.83284708    -0.00126430     0.00043940    -0.00062624
H        -0.90658070    -0.05847325     1.83454095    -0.00076681     0.00023149     0.00010180
H        -0.99271005     0.06132867    -0.49874221    -0.00030348     0.00041097    -0.00007856
     6
  Step:     2            Position(A)                                  Velocity(au)
C        -0.03085697     0.01228717     0.01087660     0.00007438    -0.00007423     0.00006940
N        -0.04839336    -0.05006284     1.30493386     0.00016203    -0.00003958     0.00000182
H         0.90624059     0.02262353    -0.53327864    -0.00044704     0.00036428    -0.00024211
H         0.83404641    -0.15302745     1.82606263    -0.00131268     0.00042347    -0.00057309
H        -0.91604970    -0.05597649     1.83672894    -0.00091765     0.00022604     0.00026703
H        -0.99698987     0.06587946    -0.50089942    -0.00046051     0.00042090    -0.00030414
     6
  Step:     3            Position(A)                                  Velocity(au)
C        -0.03006342     0.01148543     0.01129730     0.00006792    -0.00007236     0.00000662
N        -0.04658096    -0.05050497     1.30532210     0.00016076    -0.00004073     0.00006820
H         0.90226332     0.02671375    -0.53709183    -0.00027357     0.00038446    -0.00045830
H         0.81978310    -0.14852501     1.82030954    -0.00122371     0.00039178    -0.00043400
H        -0.92665607    -0.05352817     1.84038264    -0.00097155     0.00022232     0.00036796
H        -1.00278451     0.07053671    -0.50539590    -0.00057445     0.00042982    -0.00050239
     6
  Step:     4            Position(A)                                  Velocity(au)
C        -0.02937120     0.01070411     0.01102140     0.00005641    -0.00007052    -0.00005722
N        -0.04487637    -0.05095397     1.30642595     0.00014282    -0.00004081     0.00013141
H         0.90025572     0.03103433    -0.54330478    -0.00009625     0.00040624    -0.00067475
H         0.80727543    -0.14445659     1.81656810    -0.00099562     0.00034505    -0.00020765
H        -0.93730418    -0.05111285     1.84477881    -0.00092846     0.00021965     0.00040522
H        -1.00955715     0.07528266    -0.51189021    -0.00063642     0.00043661    -0.00066723
     6
  Step:     5            Position(A)                                  Velocity(au)
C        -0.02882940     0.00994262     0.01004558     0.00004120    -0.00006876    -0.00012057
N        -0.04345661    -0.05139784     1.30819698     0.00011033    -0.00003987     0.00018937
H         0.90015766     0.03560111    -0.55185334     0.00006658     0.00042916    -0.00087917
H         0.79800197    -0.14097634     1.81576672    -0.00064831     0.00028641     0.00009353
H        -0.94696790    -0.04872285     1.84924759    -0.00079916     0.00021738     0.00038651
H        -1.01670732     0.08008846    -0.51999283    -0.00064331     0.00044041    -0.00079575
     6
  Step:     6            Position(A)                                  Velocity(au)
C        -0.02846982     0.00919996     0.00838363     0.00002396    -0.00006709    -0.00018188
N        -0.04246260    -0.05182615     1.31056879     0.00006759    -0.00003812     0.00024099
H         0.90171234     0.04042296    -0.56253828     0.00019856     0.00045240    -0.00105997
H         0.79309245    -0.13819079     1.81861422    -0.00022487     0.00022120     0.00044215
H        -0.95478738    -0.04635719     1.85323456    -0.00060144     0.00021501     0.00032394
H        -1.02363076     0.08491741    -0.52929879    -0.00059701     0.00044069    -0.00088777
     6
  Step:     7            Position(A)                                  Velocity(au)
C        -0.02830512     0.00847489     0.00606665     0.00000637    -0.00006555    -0.00023959
N        -0.04197803    -0.05223189     1.31346904     0.00002032    -0.00003594     0.00028616
H         0.90450165     0.04549814    -0.57504225     0.00028737     0.00047503    -0.00120768
H         0.79308258    -0.13613720     1.82543950     0.00021451     0.00015609     0.00079930
H        -0.96012546    -0.04401914     1.85633443    -0.00035698     0.00021223     0.00023182
H        -1.02976804     0.08972946    -0.53941453    -0.00050316     0.00043722    -0.00094521
     6
  Step:     8            Position(A)                                  Velocity(au)
C        -0.02833048     0.00776600     0.00314223    -0.00001016    -0.00006414    -0.00029222
N        -0.04201805    -0.05261245     1.31682916    -0.00002530    -0.00003371     0.00032537
H         0.90799920     0.05081516    -0.58895861     0.00032597     0.00049615    -0.00131587
H         0.79778531    -0.13477602     1.83610039     0.00060558     0.00009762     0.00112267
H        -0.96259694    -0.04171429     1.85830597    -0.00008922     0.00020896     0.00012521
H        -1.03463837     0.09448250    -0.54997712    -0.00036976     0.00042996    -0.00097137
     6
  Step:     9            Position(A)                                  Velocity(au)
C        -0.02852733     0.00707176    -0.00032628    -0.00002456    -0.00006287    -0.00033840
N        -0.04253141    -0.05296926     1.32058709    -0.00006381    -0.00003173     0.00035902
H         0.91163290     0.05635229    -0.60382947     0.00031281     0.00051489    -0.00138154
H         0.80633082    -0.13400152     1.85000005     0.00089481     0.00005074     0.00137607
H        -0.96207733    -0.03944764     1.85907363     0.00017790     0.00020538     0.00001915
H        -1.03785724     0.09913573    -0.56066506    -0.00020607     0.00041913    -0.00097035
     6
  Step:    10            Position(A)                                  Velocity(au)
C        -0.02886781     0.00639050    -0.00426100    -0.00003618    -0.00006177    -0.00037689
N        -0.04341403    -0.05330652     1.32468335    -0.00009126    -0.00003018     0.00038699
H         0.91484249     0.06207933    -0.61918253     0.00025099     0.00053060    -0.00140475
H         0.81736105    -0.13366588     1.86620457     0.00104984     0.00001802     0.00153649
H        -0.95870514    -0.03722114     1.85872482     0.00042049     0.00020187    -0.00007177
H        -1.03914656     0.10365179    -0.57120528    -0.00002196     0.00040511    -0.00094673
     6
  Step:    11            Position(A)                                  Velocity(au)
C        -0.02931879     0.00572036    -0.00857146    -0.00004469    -0.00006085    -0.00040664
N        -0.04452798    -0.05362959     1.32905320    -0.00010540    -0.00002912     0.00040848
H         0.91712368     0.06796012    -0.63456115     0.00014714     0.00054287    -0.00138804
H         0.82929804    -0.13360740     1.88361363     0.00106202    -0.00000039     0.00159623
H        -0.95287824    -0.03503130     1.85750343     0.00061549     0.00019903    -0.00013383
H        -1.03833758     0.10799827    -0.58137649     0.00017264     0.00038841    -0.00090529
     6
  Step:    12            Position(A)                                  Velocity(au)
C        -0.02984548     0.00505920    -0.01315695    -0.00005422    -0.00005350    -0.00053399
N        -0.04571996    -0.05394367     1.33361959    -0.00010429    -0.00003279     0.00050482
H         0.91806156     0.07395555    -0.64954853    -0.00002363     0.00064763    -0.00123276
H         0.84059470    -0.13367438     1.90112516     0.00090118    -0.00011860     0.00152898
H        -0.94524005    -0.03286691     1.85579709     0.00077836     0.00032339    -0.00017376
H        -1.03536981     0.11214897    -0.59101034     0.00043936     0.00024071    -0.00077467
     6
  Step:    13            Position(A)                                  Velocity(au)
C        -0.03050487     0.00455001    -0.02025347    -0.00006485    -0.00003911    -0.00076470
N        -0.04680944    -0.05434685     1.34009711    -0.00008845    -0.00004184     0.00068065
H         0.91660670     0.08212825    -0.66153021    -0.00024842     0.00079774    -0.00094663
H         0.84901303    -0.13620206     1.91706305     0.00059274    -0.00028597     0.00134635
H        -0.93585013    -0.02795644     1.85370212     0.00089042     0.00052697    -0.00019171
H        -1.02872564     0.11326425    -0.59832380     0.00076721     0.00000878    -0.00055441
     6
  Step:    14            Position(A)                                  Velocity(au)
C        -0.03126418     0.00420364    -0.02988629    -0.00007227    -0.00002455    -0.00098456
N        -0.04765505    -0.05485906     1.34851013    -0.00006011    -0.00005201     0.00084690
H         0.91262697     0.09140768    -0.67025781    -0.00047313     0.00088233    -0.00064907
H         0.85356205    -0.13993045     1.93057904     0.00021565    -0.00037553     0.00110550
H        -0.92576042    -0.02133851     1.85160312     0.00089251     0.00067054    -0.00015967
H        -1.01858553     0.11234105    -0.60313917     0.00106149    -0.00016199    -0.00033357
     6
  Step:    15            Position(A)                                  Velocity(au)
C        -0.03208588     0.00401301    -0.04179255    -0.00007596    -0.00001095    -0.00117609
N        -0.04812450    -0.05548477     1.35862459    -0.00002079    -0.00006244     0.00098825
H         0.90625599     0.10143100    -0.67572982    -0.00067538     0.00094227    -0.00036043
H         0.85373069    -0.14441746     1.94124798    -0.00018896    -0.00043498     0.00083994
H        -0.91632472    -0.01328703     1.85020912     0.00076768     0.00079863    -0.00005968
H        -1.00550344     0.10972048    -0.60562131     0.00129076    -0.00030780    -0.00013857
     6
  Step:    16            Position(A)                                  Velocity(au)
C        -0.03292590     0.00396416    -0.05561555    -0.00007521     0.00000114    -0.00133300
N        -0.04810995    -0.05622495     1.37012993     0.00002647    -0.00007288     0.00110020
H         0.89785166     0.11202164    -0.67814297    -0.00083460     0.00099088    -0.00009858
H         0.84942828    -0.14944656     1.94895444    -0.00058286    -0.00048025     0.00057720
H        -0.90896595    -0.00386705     1.85029760     0.00052040     0.00092541     0.00010727
H        -0.99034764     0.10560740    -0.60617054     0.00142549    -0.00043687     0.00000942
     6
  Step:    17            Position(A)                                  Velocity(au)
C        -0.03373130     0.00403800    -0.07095457    -0.00006920     0.00001127    -0.00145261
N        -0.04754544    -0.05707912     1.38269359     0.00007691    -0.00008315     0.00118231
H         0.88799758     0.12310849    -0.67788651    -0.00093017     0.00103666     0.00011934
H         0.84097958    -0.15492387     1.95387523    -0.00092742    -0.00052109     0.00034395
H        -0.90494004     0.00695810     1.85255576     0.00017785     0.00105747     0.00032601
H        -0.97431805     0.10016320    -0.60541534     0.00143555    -0.00055178     0.00009024
     6
  Step:    18            Position(A)                                  Velocity(au)
C        -0.03443982     0.00421064    -0.08739418    -0.00005728     0.00001900    -0.00153454
N        -0.04642733    -0.05804398     1.39599515     0.00012411    -0.00009286     0.00123659
H         0.87750239     0.13470066    -0.67553219    -0.00094217     0.00108681     0.00027767
H         0.82913928    -0.16084640     1.95647903    -0.00118272    -0.00056551     0.00016686
H        -0.90507505     0.01926707     1.85742976    -0.00021146     0.00119633     0.00056981
H        -0.95894215     0.09353606    -0.60419626     0.00129432    -0.00065357     0.00008709
     6
  Step:    19            Position(A)                                  Velocity(au)
C        -0.03498450     0.00445375    -0.10452557    -0.00003953     0.00002407    -0.00158027
N        -0.04483033    -0.05911066     1.40974645     0.00016074    -0.00010137     0.00126636
H         0.86738580     0.14688452    -0.67181186    -0.00085376     0.00114812     0.00036398
H         0.81510540    -0.16729557     1.95752554    -0.00130913    -0.00062136     0.00007156
H        -0.90956612     0.03313007     1.86502155    -0.00058662     0.00133918     0.00080627
H        -0.94600240     0.08586510    -0.60351014     0.00098693    -0.00074405    -0.00000903
     6
  Step:    20            Position(A)                                  Velocity(au)
C        -0.03530471     0.00473728    -0.12196560    -0.00001731     0.00002644    -0.00159305
N        -0.04291086    -0.06026167     1.42369910     0.00018004    -0.00010780     0.00127519
H         0.85882469     0.15981791    -0.66756946    -0.00065557     0.00122656     0.00037180
H         0.80049965    -0.17443978     1.95804452    -0.00127316    -0.00069624     0.00007911
H        -0.91790846     0.04856430     1.87506835    -0.00088799     0.00147977     0.00100516
H        -0.93735107     0.07725853    -0.60439388     0.00052111    -0.00082712    -0.00019379
     6
  Step:    21            Position(A)                                  Velocity(au)
C        -0.03536313     0.00503221    -0.13937655     0.00000651     0.00002638    -0.00157790
N        -0.04089168    -0.06146894     1.43764368     0.00017751    -0.00011123     0.00126653
H         0.85304406     0.17371786    -0.66367795    -0.00035110     0.00132615     0.00030373
H         0.78725254    -0.18252721     1.95925613    -0.00105789    -0.00079631     0.00019958
H        -0.92899254     0.06550278     1.88701131    -0.00107054     0.00161012     0.00114521
H        -0.93460215     0.06777031    -0.60774972    -0.00006481    -0.00090861    -0.00044634
     6
  Step:    22            Position(A)                                  Velocity(au)
C        -0.03516219     0.00531448    -0.15648525     0.00002798     0.00002452    -0.00154130
N        -0.03902752    -0.06269503     1.45140684     0.00015236    -0.00011104     0.00124367
H         0.85114373     0.18883005    -0.66092486     0.00003872     0.00144724     0.00017309
H         0.77735629    -0.19186068     1.96241067    -0.00067471    -0.00092410     0.00042498
H        -0.94132849     0.08378873     1.90012195    -0.00111171     0.00172284     0.00121709
H        -0.93876900     0.05738084    -0.61415845    -0.00070293    -0.00099510    -0.00073150
     6
  Step:    23            Position(A)                                  Velocity(au)
C        -0.03475096     0.00556857    -0.17309536     0.00004327     0.00002172    -0.00149030
N        -0.03755857    -0.06389804     1.46485125     0.00010801    -0.00010716     0.00121008
H         0.85389110     0.20537904    -0.65989118     0.00047501     0.00158508     0.00000301
H         0.77249198    -0.20274359     1.96855347    -0.00017050    -0.00107604     0.00072523
H        -0.95331333     0.10319311     1.91363747    -0.00101165     0.00181275     0.00122248
H        -0.94998017     0.04600067    -0.62375263    -0.00130933    -0.00109149    -0.00100805
     6
  Step:    24            Position(A)                                  Velocity(au)
C        -0.03421559     0.00578970    -0.18908835     0.00005004     0.00001901    -0.00143156
N        -0.03666466    -0.06503929     1.47787968     0.00005140    -0.00010027     0.00116968
H         0.86153546     0.22350678    -0.66085910     0.00090629     0.00172967    -0.00017802
H         0.77362627    -0.21540118     1.97827650     0.00037669    -0.00124131     0.00105133
H        -0.96346036     0.12344610     1.92686611    -0.00078794     0.00187771     0.00117073
H        -0.96741320     0.03350235    -0.63621157    -0.00180562    -0.00119913    -0.00123987
     6
  Step:    25            Position(A)                                  Velocity(au)
C        -0.03365621     0.00598441    -0.20441344     0.00004817     0.00001735    -0.00137037
N        -0.03643407    -0.06609163     1.49044023    -0.00000879    -0.00009168     0.00112647
H         0.87371800     0.24321889    -0.66378572     0.00127898     0.00186732    -0.00034248
H         0.78073286    -0.22989965     1.99155331     0.00087542    -0.00140316     0.00134679
H        -0.97055105     0.14427154     1.93924937    -0.00046853     0.00191851     0.00107518
H        -0.98948154     0.01976736    -0.65087715    -0.00213762    -0.00131534    -0.00140408
     6
  Step:    26            Position(A)                                  Velocity(au)
C        -0.03316185     0.00616937    -0.21906771     0.00003940     0.00001757    -0.00131001
N        -0.03685701    -0.06704507     1.50252343    -0.00006440    -0.00008302     0.00108372
H         0.88951557     0.26435800    -0.66835157     0.00154899     0.00198368    -0.00046981
H         0.79277767    -0.24609796     2.00774015     0.00124531    -0.00154297     0.00156282
H        -0.97371026     0.16541727     1.95038764    -0.00008573     0.00193848     0.00095049
H        -1.01417783     0.00472671    -0.66692852    -0.00228318    -0.00143471    -0.00149326
     6
  Step:    27            Position(A)                                  Velocity(au)
C        -0.03279424     0.00636869    -0.23307238     0.00002640     0.00002016    -0.00125179
N        -0.03784284    -0.06790796     1.51414876    -0.00010937    -0.00007585     0.00104323
H         0.90760502     0.28661578    -0.67406376     0.00168975     0.00206690    -0.00054945
H         0.80797640    -0.26365503     2.02574302     0.00143613    -0.00164503     0.00166964
H        -0.97242645     0.18667959     1.96004310     0.00032764     0.00194298     0.00081115
H        -1.03943051    -0.01161977    -0.68354497    -0.00224816    -0.00155103    -0.00151221
     6
  Step:    28            Position(A)                                  Velocity(au)
C        -0.03258436     0.00661041    -0.24645296     0.00001170     0.00002533    -0.00119552
N        -0.03924976    -0.06870437     1.52534618    -0.00014039    -0.00007139     0.00100518
H         0.92648209     0.30957546    -0.68037186     0.00169401     0.00210958    -0.00058044
H         0.82419583    -0.28208619     2.04426672     0.00143358    -0.00169980     0.00165947
H        -0.96654249     0.20792363     1.96813308     0.00074008     0.00193918     0.00067096
H        -1.06336056    -0.02920493    -0.70001091    -0.00205611    -0.00165867    -0.00147257
     6
  Step:    29            Position(A)                                  Velocity(au)
C        -0.03253838     0.00692280    -0.25922661    -0.00000285     0.00003297    -0.00114017
N        -0.04091412    -0.06946976     1.53613903    -0.00015640    -0.00007051     0.00096844
H         0.94466481     0.33276694    -0.68676201     0.00157021     0.00210924    -0.00056861
H         0.83933861    -0.30084136     2.06204711     0.00125301    -0.00170459     0.00154222
H        -0.95623581     0.22910292     1.97472170     0.00112210     0.00193602     0.00054298
H        -1.08441187    -0.04790630    -0.71576031    -0.00173793    -0.00175359    -0.00138811
     6
  Step:    30            Position(A)                                  Velocity(au)
C        -0.03264671     0.00733165    -0.27139640    -0.00001615     0.00004277    -0.00108443
N        -0.04267131    -0.07024699     1.54653266    -0.00015787    -0.00007378     0.00093116
H         0.96083337     0.35571909    -0.69281122     0.00133644     0.00206741    -0.00052317
H         0.85160784    -0.31937737     2.07800576     0.00092768    -0.00166230     0.00133803
H        -0.94199450     0.25027775     1.98001179     0.00144698     0.00194400     0.00043930
H        -1.10138103    -0.06756800    -0.73037842    -0.00132486    -0.00183335    -0.00127183
     6
  Step:    31            Position(A)                                  Velocity(au)
C        -0.03289165     0.00785838    -0.28295050    -0.00002768     0.00005428    -0.00102699
N        -0.04436777    -0.07108390     1.55650982    -0.00014610    -0.00008158     0.00089128
H         0.97390203     0.37799552    -0.69820727     0.00101512     0.00198830    -0.00045414
H         0.85963331    -0.33720742     2.09131916     0.00049789    -0.00157938     0.00107070
H        -0.92458036     0.27163175     1.98433213     0.00169251     0.00197473     0.00037035
H        -1.11339568    -0.08801435    -0.74358399    -0.00084534    -0.00189674    -0.00113491
     6
  Step:    32            Position(A)                                  Velocity(au)
C        -0.03325232     0.00851914    -0.29386367    -0.00003726     0.00006703    -0.00096673
N        -0.04586756    -0.07203171     1.56603110    -0.00012301    -0.00009411     0.00084695
H         0.98304103     0.39921695    -0.70274641     0.00062918     0.00187761    -0.00037082
H         0.86250008    -0.35392939     2.10142934     0.00000462    -0.00146431     0.00076385
H        -0.90496760     0.29347866     1.98811396     0.00184392     0.00203944     0.00034355
H        -1.11987450    -0.10906272    -0.75520683    -0.00032436    -0.00194360    -0.00098668
     6
  Step:    33            Position(A)                                  Velocity(au)
C        -0.03370674     0.00932472    -0.30409948    -0.00004478     0.00008053    -0.00090271
N        -0.04705881    -0.07314274     1.57503858    -0.00009120    -0.00011128     0.00079674
H         0.98766660     0.41907190    -0.70631958     0.00020029     0.00174183    -0.00028117
H         0.85973445    -0.36924208     2.10802985    -0.00051266    -0.00132694     0.00043975
H        -0.88424115     0.31624838     1.99184793     0.00189759     0.00214674     0.00036138
H        -1.12049157    -0.13053423    -0.76516961     0.00021583    -0.00197473    -0.00083510
     6
  Step:    34            Position(A)                                  Velocity(au)
C        -0.03423202     0.01028082    -0.31361212    -0.00005014     0.00009433    -0.00083412
N        -0.04786281    -0.07446621     1.58346131    -0.00005429    -0.00013247     0.00073971
H         0.98742280     0.43732274    -0.70889759    -0.00025158     0.00158788    -0.00019193
H         0.85128472    -0.38295884     2.11104962    -0.00101537    -0.00117864     0.00011974
H        -0.86345425     0.34044280     1.99601994     0.00186435     0.00229949     0.00041963
H        -1.11515273    -0.15226370    -0.77347628     0.00075460    -0.00199187    -0.00068734
     6
  Step:    35            Position(A)                                  Velocity(au)
C        -0.03480373     0.01138840    -0.32234756    -0.00005316     0.00010803    -0.00076024
N        -0.04824657    -0.07604080     1.59122120    -0.00001705    -0.00015627     0.00067545
H         0.98216291     0.45380982    -0.71051851    -0.00070773     0.00142320    -0.00010890
H         0.83752134    -0.39502714     2.11064943    -0.00146394    -0.00103296    -0.00017449
H        -0.84345490     0.36655415     2.00102817     0.00177026     0.00249189     0.00050652
H        -1.10398318    -0.17411014    -0.78020656     0.00127190    -0.00199780    -0.00055037
     6
  Step:    36            Position(A)                                  Velocity(au)
C        -0.03539501     0.01264409    -0.33024382    -0.00005357     0.00012123    -0.00068030
N        -0.04823592    -0.07788481     1.59823796     0.00001472    -0.00018033     0.00060386
H         0.97193993     0.46845803    -0.71128004    -0.00115000     0.00125595    -0.00003737
H         0.81925815    -0.40555686     2.10723230    -0.00181657    -0.00090629    -0.00042005
H        -0.82472635     0.39495770     2.00710104     0.00165312     0.00270835     0.00060390
H        -1.08732757    -0.19596945    -0.78551667     0.00174729    -0.00199663    -0.00043143
     6
  Step:    37            Position(A)                                  Velocity(au)
C        -0.03597566     0.01404057    -0.33723051    -0.00005104     0.00013361    -0.00059350
N        -0.04792460    -0.07998586     1.60443172     0.00003484    -0.00020154     0.00052501
H         0.95700446     0.48128616    -0.71133612    -0.00156010     0.00109530     0.00001750
H         0.79778043    -0.41485405     2.10146012    -0.00203030    -0.00081773    -0.00059321
H        -0.80728977     0.42580447     2.01423966     0.00155497     0.00292511     0.00069046
H        -1.06575783    -0.21779020    -0.78964486     0.00215941    -0.00199409    -0.00033846
     6
  Step:    38            Position(A)                                  Velocity(au)
C        -0.03651154     0.01556708    -0.34322766    -0.00004524     0.00014487    -0.00049887
N        -0.04747363    -0.08229386     1.60972361     0.00003782    -0.00021645     0.00043901
H         0.93780975     0.49241988    -0.71089729    -0.00191886     0.00095188     0.00005029
H         0.77484136    -0.42344633     2.09425468    -0.00206645    -0.00078716    -0.00067234
H        -0.79070830     0.45895019     2.02220623     0.00151285     0.00311486     0.00074618
H        -1.04008644    -0.23959395    -0.79292105     0.00248595    -0.00199791    -0.00028027
     6
  Step:    39            Position(A)                                  Velocity(au)
C        -0.03696539     0.01720979    -0.34814430    -0.00003602     0.00015473    -0.00039540
N        -0.04709711    -0.08472109     1.61403595     0.00002012    -0.00022205     0.00034613
H         0.91502576     0.50211036    -0.71023587    -0.00220606     0.00083799     0.00005513
H         0.75257286    -0.43207461     2.08675130    -0.00190085    -0.00083069    -0.00064371
H        -0.77419334     0.49394804     2.03056375     0.00155121     0.00325257     0.00075628
H        -1.01137281    -0.26149837    -0.79577631     0.00270530    -0.00201784    -0.00026614
     6
  Step:    40            Position(A)                                  Velocity(au)
C        -0.03729954     0.01895203    -0.35187776    -0.00002362     0.00016291    -0.00028206
N        -0.04703341    -0.08715168     1.61729588    -0.00001864    -0.00021664     0.00024723
H         0.88954792     0.51075254    -0.70969123    -0.00240122     0.00076745     0.00002570
H         0.73325670    -0.44161937     2.08017226    -0.00153714    -0.00095382    -0.00050927
H        -0.75677252     0.53010647     2.03875130     0.00167883     0.00332056     0.00071339
H        -0.98090282    -0.28373803    -0.79874339     0.00280008    -0.00206484    -0.00030441
     6
  Step:    41            Position(A)                                  Velocity(au)
C        -0.03748211     0.02077380    -0.35431501    -0.00000900     0.00016904    -0.00015817
N        -0.04750497    -0.08946060     1.61944460    -0.00007508    -0.00020050     0.00014422
H         0.86249446     0.51889986    -0.70967356    -0.00248575     0.00075460    -0.00004416
H         0.71894490    -0.45294114     2.07561010    -0.00101679    -0.00114449    -0.00029279
H        -0.73746564     0.56659158     2.04617058     0.00189014     0.00331095     0.00061747
H        -0.95011574    -0.30667075    -0.80243593     0.00276292    -0.00214906    -0.00039991
     6
  Step:    42            Position(A)                                  Velocity(au)
C        -0.03749633     0.02265010    -0.35533799     0.00000604     0.00017255    -0.00002372
N        -0.04867588    -0.09153801     1.62045086    -0.00014245    -0.00017602     0.00004012
H         0.83516741     0.52726097    -0.71065730    -0.00244734     0.00081186    -0.00015910
H         0.71101246    -0.46665734     2.07376689    -0.00041745    -0.00137090    -0.00003938
H        -0.71542208     0.60253979     2.05225972     0.00216967     0.00322539     0.00047409
H        -0.92045858    -0.33075293    -0.80749228     0.00260268    -0.00227634    -0.00055055
     6
  Step:    43            Position(A)                                  Velocity(au)
C        -0.03735002     0.02454865    -0.35483386     0.00001901     0.00017269     0.00012014
N        -0.05062125    -0.09331143     1.62032224    -0.00021228    -0.00014716    -0.00006144
H         0.80895415     0.53666090    -0.71315413    -0.00228581     0.00094583    -0.00031997
H         0.70981238    -0.48293219     2.07474865     0.00016419    -0.00158722     0.00019439
H        -0.68999989     0.63715315     2.05654216     0.00249711     0.00307292     0.00029218
H        -0.89317704    -0.35647004    -0.81448034     0.00234794    -0.00244422    -0.00074441
     6
  Step:    44            Position(A)                                  Velocity(au)
C        -0.03708037     0.02642802    -0.35270973     0.00002747     0.00016867     0.00027083
N        -0.05331999    -0.09475750     1.61910666    -0.00027663    -0.00011830    -0.00015726
H         0.78516097     0.54795284    -0.71765716    -0.00201837     0.00115281    -0.00052118
H         0.71460452    -0.50138083     2.07801945     0.00063920    -0.00174645     0.00035622
H        -0.66079304     0.66976575     2.05865171     0.00285140     0.00286720     0.00008210
H        -0.86909295    -0.38422498    -0.82377757     0.00204467    -0.00263936    -0.00095899
     6