     6
  Step:     0            Position(A)                                  Velocity(au)
C        -0.03999720     0.00574514     0.00935782    -0.00005204    -0.00005278    -0.00016503
N        -0.05100032    -0.06420879     1.30792960    -0.00007921     0.00013279     0.00031141
H         0.90939092     0.06639709    -0.46952583     0.00083069    -0.00004192    -0.00086231
H         0.92511157    -0.06371051     1.82929089     0.00016065    -0.00043992    -0.00025568
H        -0.88649673     0.01316158     1.82181666     0.00079648    -0.00100298    -0.00114184
H        -0.97561575     0.13818312    -0.57649891    -0.00006703     0.00026846    -0.00010102
     6
  Step:     1            Position(A)                                  Velocity(au)
C        -0.04031051     0.00544741     0.00814149    -0.00006151    -0.00005607    -0.00027899
N        -0.05134452    -0.06351978     1.30989676    -0.00004510     0.00011922     0.00040551
H         0.91433969     0.06633482    -0.47446028     0.00096482     0.00001752    -0.00093332
H         0.92533014    -0.06599709     1.82762791    -0.00008040    -0.00039597    -0.00035027
H        -0.88279417     0.00788468     1.81601063     0.00053706    -0.00092596    -0.00096750
H        -0.97596941     0.13978194    -0.57693733    -0.00006180     0.00031587    -0.00005941
     6
  Step:     2            Position(A)                                  Velocity(au)
C        -0.04067011     0.00513173     0.00630572    -0.00006883    -0.00005930    -0.00039080
N        -0.05149373    -0.06290456     1.31236575    -0.00000839     0.00010581     0.00049433
H         0.91994579     0.06658874    -0.47973603     0.00106967     0.00007349    -0.00098658
H         0.92423205    -0.06804234     1.82545900    -0.00031823    -0.00035157    -0.00043906
H        -0.88062150     0.00303187     1.81123248     0.00024119    -0.00084811    -0.00076823
H        -0.97629187     0.14163859    -0.57714879    -0.00005598     0.00036242    -0.00001855
     6
  Step:     3            Position(A)                                  Velocity(au)
C        -0.04106369     0.00479849     0.00386475    -0.00007378    -0.00006240    -0.00049914
N        -0.05143633    -0.06236186     1.31530641     0.00002980     0.00009267     0.00057704
H         0.92604561     0.06713901    -0.48525684     0.00114383     0.00012557    -0.00102222
H         0.92184759    -0.06984442     1.82282311    -0.00054745    -0.00030687    -0.00051897
H        -0.88015472    -0.00139652     1.80760358    -0.00008098    -0.00077059    -0.00055013
H        -0.97658203     0.14374811    -0.57714031    -0.00005033     0.00040769     0.00002045
     6
  Step:     4            Position(A)                                  Velocity(au)
C        -0.04147808     0.00444844     0.00083991    -0.00007625    -0.00006529    -0.00060244
N        -0.05116742    -0.06188981     1.31868460     0.00006808     0.00007990     0.00065275
H         0.93247121     0.06796376    -0.49092976     0.00118676     0.00017332    -0.00104095
H         0.91823728    -0.07140270     1.81977601    -0.00076188    -0.00026217    -0.00058672
H        -0.88150830    -0.00540643     1.80520827    -0.00041666    -0.00069449    -0.00032081
H        -0.97684303     0.14610297    -0.57692481    -0.00004566     0.00045102     0.00005648
     6
  Step:     5            Position(A)                                  Velocity(au)
C        -0.04189955     0.00408276    -0.00273904    -0.00007616    -0.00006789    -0.00069886
N        -0.05069009    -0.06148599     1.32246166     0.00010485     0.00006762     0.00072040
H         0.93905455     0.06903895    -0.49666747     0.00119872     0.00021628    -0.00104377
H         0.91349606    -0.07271823     1.81639159    -0.00095457    -0.00021784    -0.00063882
H        -0.88472209    -0.00900931     1.80408696    -0.00075087    -0.00062073    -0.00008898
H        -0.97708251     0.14869208    -0.57652122    -0.00004278     0.00049160     0.00008840
     6
  Step:     6            Position(A)                                  Velocity(au)
C        -0.04231422     0.00370316    -0.00683245    -0.00007352    -0.00007007    -0.00078636
N        -0.05001636    -0.06114747     1.32659343     0.00013840     0.00005592     0.00077881
H         0.94563117     0.07033812    -0.50238868     0.00118061     0.00025391    -0.00103164
H         0.90775763    -0.07379425     1.81276284    -0.00111792    -0.00017439    -0.00067172
H        -0.88975166    -0.01222108     1.80423141    -0.00106737    -0.00055011     0.00013600
H        -0.97731266     0.15149993    -0.57595429    -0.00004250     0.00052850     0.00011516
     6
  Step:     7            Position(A)                                  Velocity(au)
C        -0.04270835     0.00331189    -0.01138971    -0.00006842    -0.00007176    -0.00086280
N        -0.04916761    -0.06087080     1.33102926     0.00016701     0.00004491     0.00082668
H         0.95204240     0.07183221    -0.50801644     0.00113385     0.00028572    -0.00100512
H         0.90119790    -0.07463665     1.80900201    -0.00124392    -0.00013237    -0.00068206
H        -0.89646421    -0.01506099     1.80558314    -0.00134999    -0.00048319     0.00034491
H        -0.97755000     0.15450605    -0.57525430    -0.00004553     0.00056076     0.00013582
     6
  Step:     8            Position(A)                                  Velocity(au)
C        -0.04306882     0.00291170    -0.01634896    -0.00006103    -0.00007286    -0.00092627
N        -0.04817433    -0.06065207     1.33571144     0.00018913     0.00003470     0.00086284
H         0.95813720     0.07348953    -0.51347485     0.00106065     0.00031129    -0.00096483
H         0.89403752    -0.07525429     1.80523991    -0.00132499    -0.00009241    -0.00066701
H        -0.90464170    -0.01755052     1.80803563    -0.00158421    -0.00042041     0.00052942
H        -0.97781485     0.15768501    -0.57445622    -0.00005246     0.00058757     0.00014965
     6
  Step:     9            Position(A)                                  Velocity(au)
C        -0.04338362     0.00250575    -0.02163819    -0.00005166    -0.00007334    -0.00097531
N        -0.04707504    -0.06048690     1.34057595     0.00020356     0.00002535     0.00088654
H         0.96377769     0.07527646    -0.51869153     0.00096447     0.00033047    -0.00091214
H         0.88653788    -0.07565914     1.80162201    -0.00135528    -0.00005510    -0.00062494
H        -0.91399234    -0.01971248     1.81144081    -0.00175886    -0.00036206     0.00068304
H        -0.97813038     0.16100708    -0.57359849    -0.00006361     0.00060836     0.00015626
     6
  Step:    10            Position(A)                                  Velocity(au)
C        -0.04364238     0.00209735    -0.02717790    -0.00004067    -0.00007322    -0.00100932
N        -0.04591417    -0.06037057     1.34555480     0.00020963     0.00001694     0.00089771
H         0.96884576     0.07715881    -0.52360239     0.00084990     0.00034343    -0.00084927
H         0.87898975    -0.07586611     1.79830111    -0.00133182    -0.00002095    -0.00055582
H        -0.92417040    -0.02157052     1.81561949    -0.00186754    -0.00030837     0.00080177
H        -0.97852116     0.16443968    -0.57272121    -0.00007906     0.00062301     0.00015565
     6
  Step:    11            Position(A)                                  Velocity(au)
C        -0.04383687     0.00168976    -0.03288566    -0.00002853    -0.00007258    -0.00102883
N        -0.04473898    -0.06029810     1.35057966     0.00020731     0.00000950     0.00089716
H         0.97324864     0.07910351    -0.52815550     0.00072234     0.00035073    -0.00077913
H         0.87169656    -0.07589261     1.79542818    -0.00125517     0.00000970    -0.00046130
H        -0.93480349    -0.02314887     1.82037547    -0.00190959    -0.00025950     0.00088465
H        -0.97901137     0.16794967    -0.57186397    -0.00009855     0.00063196     0.00014826
     6
  Step:    12            Position(A)                                  Velocity(au)
C        -0.04396138     0.00128578    -0.03868241    -0.00001569    -0.00007154    -0.00103565
N        -0.04359600    -0.06026439     1.35558692     0.00019721     0.00000300     0.00088671
H         0.97692300     0.08108070    -0.53231470     0.00058746     0.00035335    -0.00070506
H         0.86495429    -0.07575765     1.79314276    -0.00112956     0.00003674    -0.00034458
H        -0.94552362    -0.02447225     1.82551176    -0.00188992    -0.00021552     0.00093373
H        -0.97962317     0.17150629    -0.57106341    -0.00012164     0.00063624     0.00013491
     6
  Step:    13            Position(A)                                  Velocity(au)
C        -0.04401277     0.00088750    -0.04449934    -0.00000428    -0.00011691    -0.00171734
N        -0.04252748    -0.06026445     1.36052306     0.00030011    -0.00000433     0.00144511
H         0.97983634     0.08306588    -0.53606192     0.00074929     0.00058634    -0.00104847
H         0.85902987    -0.07548059     1.79156408    -0.00160022     0.00010036    -0.00034893
H        -0.95599678    -0.02556565     1.83084623    -0.00302287    -0.00029333     0.00158570
H        -0.98037540     0.17508439    -0.57035113    -0.00024573     0.00106002     0.00019406
     6
  Step:    14            Position(A)                                  Velocity(au)
C        -0.04401493     0.00022765    -0.05376860     0.00000348    -0.00011586    -0.00155036
N        -0.04090883    -0.06028209     1.36832386     0.00026667    -0.00000172     0.00130492
H         0.98392809     0.08633024    -0.54201294     0.00069198     0.00056449    -0.00104617
H         0.85067231    -0.07494436     1.79005909    -0.00132138     0.00008852    -0.00017062
H        -0.97257035    -0.02718820     1.83969969    -0.00279011    -0.00028022     0.00151782
H        -0.98200409     0.18101447    -0.56969740    -0.00032776     0.00103174     0.00003955
     6
  Step:    15            Position(A)                                  Velocity(au)
C        -0.04397328    -0.00042810    -0.06210433     0.00001101    -0.00011500    -0.00138469
N        -0.03949932    -0.06028403     1.37534104     0.00022658     0.00000112     0.00116576
H         0.98769410     0.08947588    -0.54794162     0.00063229     0.00054262    -0.00103724
H         0.84402506    -0.07447539     1.78962667    -0.00100051     0.00007655     0.00002539
H        -0.98767966    -0.02874764     1.84808170    -0.00250560    -0.00026978     0.00141899
H        -0.98409723     0.18680027    -0.56990199    -0.00040610     0.00100534    -0.00010679
     6
  Step:    16            Position(A)                                  Velocity(au)
C        -0.04388969    -0.00108037    -0.06951869     0.00001822    -0.00011510    -0.00123260
N        -0.03833161    -0.06026933     1.38158373     0.00018345     0.00000409     0.00103779
H         0.99112001     0.09250228    -0.55381095     0.00057492     0.00052490    -0.00103020
H         0.83929214    -0.07407368     1.79034789    -0.00065857     0.00006531     0.00023230
H        -1.00107007    -0.03025680     1.85583987    -0.00220227    -0.00026341     0.00130814
H        -0.98662326     0.19244965    -0.57091201    -0.00048060     0.00098783    -0.00024392
     6
  Step:    17            Position(A)                                  Velocity(au)
C        -0.04376655    -0.00173403    -0.07608999     0.00002509    -0.00011641    -0.00109721
N        -0.03741778    -0.06023760     1.38711632     0.00013920     0.00000715     0.00092365
H         0.99421744     0.09543165    -0.55963071     0.00052084     0.00051271    -0.00102868
H         0.83655266    -0.07373438     1.79226245    -0.00030828     0.00005515     0.00044588
H        -1.01266762    -0.03173638     1.86292441    -0.00189522    -0.00026131     0.00119469
H        -0.98955028     0.19800862    -0.57266964    -0.00055080     0.00098136    -0.00037279
     6
  Step:    18            Position(A)                                  Velocity(au)
C        -0.04360627    -0.00239539    -0.08191276     0.00003158    -0.00011880    -0.00097624
N        -0.03675917    -0.06018861     1.39201730     0.00009476     0.00001026     0.00082155
H         0.99700335     0.09829382    -0.56543085     0.00046859     0.00050539    -0.00103228
H         0.83580981    -0.07345067     1.79538449     0.00004077     0.00004615     0.00066159
H        -1.02247847    -0.03320861     1.86933505    -0.00158766    -0.00026288     0.00108112
H        -0.99284505     0.20353509    -0.57512305    -0.00061499     0.00098439    -0.00049395
     6
  Step:    19            Position(A)                                  Velocity(au)
C        -0.04341138    -0.00306997    -0.08706836     0.00003761    -0.00012191    -0.00086608
N        -0.03635210    -0.06012223     1.39635511     0.00005089     0.00001340     0.00072864
H         0.99948701     0.10111504    -0.57123928     0.00041615     0.00050153    -0.00103888
H         0.83701117    -0.07321538     1.79970234     0.00037810     0.00003831     0.00087339
H        -1.03052173    -0.03469263     1.87508223    -0.00127901    -0.00026721     0.00096723
H        -0.99646620     0.20907865    -0.57822434    -0.00067059     0.00099391    -0.00060689
     6
  Step:    20            Position(A)                                  Velocity(au)
C        -0.04318480    -0.00376152    -0.09161782     0.00004307    -0.00012543    -0.00076375
N        -0.03618896    -0.06003847     1.40018231     0.00000845     0.00001653     0.00064267
H         1.00166661     0.10391384    -0.57707238     0.00036180     0.00049975    -0.00104627
H         0.84004670    -0.07302132     1.80517151     0.00069180     0.00003170     0.00107428
H        -1.03681076    -0.03620286     1.88017360    -0.00096942    -0.00027346     0.00085275
H        -1.00035953     0.21467262    -0.58192374    -0.00071494     0.00100696    -0.00071048
     6
  Step:    21            Position(A)                                  Velocity(au)
C        -0.04292992    -0.00447202    -0.09560557     0.00004788    -0.00012908    -0.00066734
N        -0.03625761    -0.05993749     1.40353883    -0.00003155     0.00001961     0.00056223
H         1.00353125     0.10670130    -0.58293454     0.00030444     0.00049902    -0.00105276
H         0.84474411    -0.07286105     1.81171063     0.00096998     0.00002639     0.00125732
H        -1.04135790    -0.03774934     1.88461425    -0.00066062    -0.00028100     0.00073809
H        -1.00445785     0.22033451    -0.58616607    -0.00074591     0.00102123    -0.00080346
     6
  Step:    22            Position(A)                                  Velocity(au)
C        -0.04265051    -0.00520200    -0.09906515     0.00005197    -0.00013266    -0.00057569
N        -0.03654106    -0.05981966     1.40645664    -0.00006819     0.00002260     0.00048655
H         1.00506414     0.10948281    -0.58882098     0.00024346     0.00049859    -0.00105722
H         0.85087151    -0.07272684     1.81920299     0.00120234     0.00002246     0.00141651
H        -1.04418311    -0.03933871     1.88841048    -0.00035544    -0.00028935     0.00062419
H        -1.00868375     0.22606932    -0.59089014    -0.00076202     0.00103499    -0.00088476
     6
  Step:    23            Position(A)                                  Velocity(au)
C        -0.04235059    -0.00595094    -0.10202360     0.00005531    -0.00013603    -0.00048818
N        -0.03701783    -0.05968552     1.40896312    -0.00010069     0.00002548     0.00041523
H         1.00624542     0.11225977    -0.59472078     0.00017862     0.00049796    -0.00105893
H         0.85814828    -0.07261063     1.82750243     0.00138120     0.00001998     0.00154720
H        -1.04532045    -0.04097507     1.89157295    -0.00005730    -0.00029816     0.00051234
H        -1.01295315     0.23187294    -0.59602967    -0.00076248     0.00104702    -0.00095361
     6
  Step:    24            Position(A)                                  Velocity(au)
C        -0.04203425    -0.00671758    -0.10450426     0.00005791    -0.00013909    -0.00040445
N        -0.03766287    -0.05953572     1.41108304    -0.00012846     0.00002824     0.00034802
H         1.00705423     0.11503091    -0.60061919     0.00010997     0.00049680    -0.00105749
H         0.86626035    -0.07250426     1.83644137     0.00150203     0.00001893     0.00164637
H        -1.04482156    -0.04266072     1.89411879     0.00023011    -0.00030718     0.00040399
H        -1.01717900     0.23773489    -0.60151498    -0.00074713     0.00105650    -0.00100961
     6
  Step:    25            Position(A)                                  Velocity(au)
C        -0.04170554    -0.00750017    -0.10652841     0.00005980    -0.00014179    -0.00032433
N        -0.03844863    -0.05937101     1.41283944    -0.00015116     0.00003085     0.00028473
H         1.00747028     0.11779317    -0.60649919     0.00003778     0.00049491    -0.00105270
H         0.87487811    -0.07239975     1.84583993     0.00156363     0.00001928     0.00171268
H        -1.04275747    -0.04439653     1.89607270     0.00050303    -0.00031622     0.00030071
H        -1.02127478     0.24364039    -0.60727479    -0.00071640     0.00106290    -0.00105265
     6
  Step:    26            Position(A)                                  Velocity(au)
C        -0.04136830    -0.00829662    -0.10811620     0.00006101    -0.00014408    -0.00024772
N        -0.03934634    -0.05919216     1.41425402    -0.00016867     0.00003332     0.00022517
H         1.00747498     0.12054253    -0.61234276    -0.00003753     0.00049219    -0.00104453
H         0.88367404    -0.07228955     1.85551488     0.00156775     0.00002092     0.00174629
H        -1.03921946    -0.04618237     1.89746765     0.00075775    -0.00032513     0.00020406
H        -1.02515733     0.24957204    -0.61323800    -0.00067115     0.00106592    -0.00108296
     6
  Step:    27            Position(A)                                  Velocity(au)
C        -0.04102611    -0.00910471    -0.10928715     0.00006160    -0.00014596    -0.00017457
N        -0.04032698    -0.05899999     1.41534707    -0.00018099     0.00003564     0.00016911
H         1.00705236     0.12327445    -0.61813164    -0.00011541     0.00048863    -0.00103306
H         0.89233742    -0.07216682     1.86528754     0.00151841     0.00002370     0.00174863
H        -1.03431882    -0.04801729     1.89834521     0.00099068    -0.00033379     0.00011565
H        -1.02874911     0.25551103    -0.61933524    -0.00061261     0.00106547    -0.00110104
     6
  Step:    28            Position(A)                                  Velocity(au)
C        -0.04068226    -0.00992216    -0.11006039     0.00006163    -0.00014743    -0.00010483
N        -0.04136204    -0.05879525     1.41613746    -0.00018829     0.00003783     0.00011630
H         1.00618963     0.12598438    -0.62384802    -0.00019526     0.00048426    -0.00101845
H         0.90058461    -0.07202560     1.87498950     0.00142117     0.00002747     0.00172201
H        -1.02818626    -0.04989986     1.89875562     0.00119843    -0.00034217     0.00003703
H        -1.03197999     0.26143822    -0.62550032    -0.00054221     0.00106159    -0.00110756
     6
  Step:    29            Position(A)                                  Velocity(au)
C        -0.04033969    -0.01074676    -0.11045472     0.00006116    -0.00014852    -0.00003844
N        -0.04242412    -0.05857868     1.41664244    -0.00019080     0.00003989     0.00006645
H         1.00487759     0.12866801    -0.62947503    -0.00027641     0.00047917    -0.00100094
H         0.90816619    -0.07186091     1.88446705     0.00128255     0.00003203     0.00166935
H        -1.02097090    -0.05182830     1.89875763     0.00137792    -0.00035022    -0.00003031
H        -1.03478813     0.26733486    -0.63167111    -0.00046148     0.00105443    -0.00110336
     6
  Step:    30            Position(A)                                  Velocity(au)
C        -0.04000107    -0.01157643    -0.11048853     0.00006023    -0.00014925     0.00002468
N        -0.04348722    -0.05835092     1.41687758    -0.00018880     0.00004185     0.00001923
H         1.00311086     0.13132159    -0.63499706    -0.00035817     0.00047347    -0.00098079
H         0.91487035    -0.07166880     1.89358357     0.00110955     0.00003722     0.00159393
H        -1.01283821    -0.05380081     1.89841795     0.00152646    -0.00035797    -0.00008504
H        -1.03712016     0.27318306    -0.63779019    -0.00037197     0.00104421    -0.00108935
     6
  Step:    31            Position(A)                                  Velocity(au)
C        -0.03966878    -0.01240926    -0.11017976     0.00005890    -0.00014966     0.00008464
N        -0.04452713    -0.05811252     1.41685660    -0.00018263     0.00004372    -0.00002570
H         1.00088791     0.13394196    -0.64039999    -0.00043988     0.00046729    -0.00095828
H         0.92052544    -0.07144632     1.90222170     0.00090936     0.00004285     0.00149926
H        -1.00396772    -0.05581570     1.89781042     0.00164176    -0.00036546    -0.00012593
H        -1.03893152     0.27896627    -0.64380536    -0.00027526     0.00103120    -0.00106650
     6
  Step:    32            Position(A)                                  Velocity(au)
C        -0.03934497    -0.01324354    -0.10954571     0.00005721    -0.00014980     0.00014156
N        -0.04552151    -0.05786392     1.41659134    -0.00017261     0.00004552    -0.00006866
H         0.99821103     0.13652670    -0.64567125    -0.00052087     0.00046075    -0.00093369
H         0.92499963    -0.07119148     1.91028373     0.00068875     0.00004877     0.00138875
H        -0.99455074    -0.05787167     1.89701525     0.00172184    -0.00037278    -0.00015189
H        -1.04018627     0.28466948    -0.64966986    -0.00017284     0.00101567    -0.00103577
     6
  Step:    33            Position(A)                                  Velocity(au)
C        -0.03903155    -0.01407778    -0.10860304     0.00005519    -0.00014969     0.00019556
N        -0.04644973    -0.05760547     1.41609182    -0.00015904     0.00004728    -0.00010998
H         0.99508622     0.13907406    -0.65079987    -0.00060048     0.00045398    -0.00090729
H         0.92819708    -0.07090315     1.91769033     0.00045384     0.00005482     0.00126555
H        -0.98478894    -0.05996791     1.89611863     0.00176520    -0.00038003    -0.00016200
H        -1.04085666     0.29027935    -0.65534231    -0.00006612     0.00099794    -0.00099811
     6
  Step:    34            Position(A)                                  Velocity(au)
C        -0.03873027    -0.01491069    -0.10736763     0.00005287    -0.00014936     0.00024679
N        -0.04729289    -0.05733738     1.41536637    -0.00014226     0.00004900    -0.00014995
H         0.99152304     0.14158296    -0.65577640    -0.00067809     0.00044707    -0.00087934
H         0.93005442    -0.07058089     1.92437907     0.00021021     0.00006090     0.00113257
H        -0.97489045    -0.06210434     1.89521098     0.00177112    -0.00038734    -0.00015572
H        -1.04092264     0.29578420    -0.66078653     0.00004359     0.00097826    -0.00095441
     6
  Step:    35            Position(A)                                  Velocity(au)
C        -0.03844274    -0.01574120    -0.10585467     0.00005027    -0.00014886     0.00029536
N        -0.04803402    -0.05705975     1.41442189    -0.00012262     0.00005072    -0.00018879
H         0.98753452     0.14405288    -0.66059276    -0.00075309     0.00044011    -0.00085005
H         0.93053813    -0.07022490     1.93030337    -0.00003704     0.00006690     0.00099253
H        -0.96506453    -0.06428161     1.89438439     0.00173988    -0.00039485    -0.00013301
H        -1.04037124     0.30117393    -0.66597125     0.00015506     0.00095691    -0.00090549
     6
  Step:    36            Position(A)                                  Velocity(au)
C        -0.03817045    -0.01656837    -0.10407866     0.00004741    -0.00014821     0.00034138
N        -0.04865828    -0.05677259     1.41326414    -0.00010052     0.00005244    -0.00022667
H         0.98313706     0.14648378    -0.66524216    -0.00082485     0.00043317    -0.00081963
H         0.92964196    -0.06983588     1.93543138    -0.00028324     0.00007274     0.00084795
H        -0.95551597    -0.06650120     1.89372979     0.00167274    -0.00040269    -0.00009432
H        -1.03919592     0.30643987    -0.67086957     0.00026721     0.00093410    -0.00085207
     6
  Step:    37            Position(A)                                  Velocity(au)
C        -0.03791484    -0.01739144    -0.10205356     0.00004429    -0.00014742     0.00038493
N        -0.04915323    -0.05647581     1.41189810    -0.00007642     0.00005419    -0.00026369
H         0.97835029     0.14887596    -0.66971888    -0.00089278     0.00042629    -0.00078824
H         0.92738438    -0.06941496     1.93974482    -0.00052410     0.00007834     0.00070118
H        -0.94643958    -0.06876532     1.89333414     0.00157198    -0.00041097    -0.00004068
H        -1.03739598     0.31157457    -0.67545858     0.00037901     0.00091002    -0.00079483
     6
  Step:    38            Position(A)                                  Velocity(au)
C        -0.03767729    -0.01820972    -0.09979294     0.00004093    -0.00014651     0.00042604
N        -0.04950910    -0.05616928     1.41032835    -0.00005084     0.00005596    -0.00029986
H         0.97319716     0.15122996    -0.67401815    -0.00095626     0.00041950    -0.00075602
H         0.92380680    -0.06896363     1.94323808    -0.00075559     0.00008365     0.00055443
H        -0.93801412    -0.07107675     1.89327690     0.00144105    -0.00041975     0.00002623
H        -1.03497619     0.31657167    -0.67971892     0.00048946     0.00088482    -0.00073435
     6
  Step:    39            Position(A)                                  Velocity(au)
C        -0.03745915    -0.01902260    -0.09731021     0.00003733    -0.00014548     0.00046471
N        -0.04971920    -0.05585281     1.40855957    -0.00002436     0.00005775    -0.00033513
H         0.96770385     0.15354645    -0.67813595    -0.00101466     0.00041279    -0.00072307
H         0.91897211    -0.06848363     1.94591758    -0.00097385     0.00008862     0.00040987
H        -0.93039573    -0.07343862     1.89362619     0.00128452    -0.00042906     0.00010404
H        -1.03194656     0.32142567    -0.68363443     0.00059763     0.00085864    -0.00067117
     6
  Step:    40            Position(A)                                  Velocity(au)
C        -0.03726171    -0.01982950    -0.09461885     0.00003349    -0.00014433     0.00050087
N        -0.04978027    -0.05552625     1.40659698     0.00000236     0.00005957    -0.00036933
H         0.96189991     0.15582603    -0.68206886    -0.00106734     0.00040615    -0.00068949
H         0.91296393    -0.06797698     1.94780157    -0.00117512     0.00009319     0.00026963
H        -0.92371213    -0.07585399     1.89443526     0.00110802    -0.00043884     0.00018972
H        -1.02832211     0.32613178    -0.68719183     0.00070257     0.00083157    -0.00060581
     6
  Step:    41            Position(A)                                  Velocity(au)
C        -0.03708623    -0.02062982    -0.09173268     0.00002943    -0.00014306     0.00053441
N        -0.04969290    -0.05518948     1.40444680     0.00002860     0.00006139    -0.00040223
H         0.95581820     0.15806923    -0.68581397    -0.00111368     0.00039953    -0.00065537
H         0.90588622    -0.06744587     1.94892010    -0.00135572     0.00009735     0.00013589
H        -0.91805710    -0.07832547     1.89573885     0.00091803    -0.00044895     0.00027967
H        -1.02412293     0.33068584    -0.69038052     0.00080332     0.00080372    -0.00053872
     6
  Step:    42            Position(A)                                  Velocity(au)
C        -0.03693393    -0.02142297    -0.08866616     0.00002516    -0.00014166     0.00056520
N        -0.04946176    -0.05484249     1.40211665     0.00005359     0.00006318    -0.00043353
H         0.94949494     0.16027631    -0.68936880    -0.00115307     0.00039289    -0.00062077
H         0.89786296    -0.06689268     1.94931526    -0.00151203     0.00010104     0.00001088
H        -0.91348648    -0.08085469     1.89755038     0.00072162    -0.00045915     0.00036985
H        -1.01937413     0.33508419    -0.69319248     0.00089894     0.00077518    -0.00047040
     6
  Step:    43            Position(A)                                  Velocity(au)
C        -0.03680589    -0.02220830    -0.08543459     0.00002070    -0.00014012     0.00059305
N        -0.04909573    -0.05448543     1.39961593     0.00007659     0.00006493    -0.00046289
H         0.94296952     0.16244725    -0.69273125    -0.00118494     0.00038617    -0.00058579
H         0.88903752    -0.06631994     1.94904129    -0.00164067     0.00010426    -0.00010321
H        -0.91001604    -0.08344184     1.89986015     0.00052605    -0.00046916     0.00045606
H        -1.01410596     0.33932377    -0.69562224     0.00098848     0.00074608    -0.00040135
     6
  Step:    44            Position(A)                                  Velocity(au)
C        -0.03670312    -0.02298511    -0.08205426     0.00001609    -0.00013844     0.00061778
N        -0.04860783    -0.05411860     1.39695590     0.00009689     0.00006659    -0.00048997
H         0.93628419     0.16458170    -0.69589969    -0.00120884     0.00037932    -0.00055053
H         0.87957126    -0.06573026     1.94816453    -0.00173862     0.00010699    -0.00020422
H        -0.90762160    -0.08608533     1.90263495     0.00033834    -0.00047863     0.00053415
H        -1.00835371     0.34340216    -0.69766703     0.00107102     0.00071657    -0.00033207
     6