    14
  Step:     0            Position(A)                                  Velocity(au)
C        -6.05040186    -0.65947501    -0.09906309    -0.00004953     0.00019584     0.00011910
C        -4.73343563    -0.76350129     0.13126292     0.00035570    -0.00015798     0.00007828
H        -6.47546548     0.27982151    -0.42812448     0.00042665     0.00022335    -0.00130095
H        -6.74954374    -1.49731174     0.11715760    -0.00002718    -0.00168255     0.00033326
H        -4.29544737    -1.72012088     0.39647743    -0.00143024    -0.00069982    -0.00072908
C        -3.83030013     0.35277716    -0.08588538    -0.00020487    -0.00000885    -0.00007689
C        -2.49387081     0.38469617     0.15798943    -0.00038824    -0.00025591     0.00011679
H        -4.20071654     1.41238648    -0.29618722    -0.00021077    -0.00081379    -0.00043771
H        -1.83796822    -0.49783942     0.32601552    -0.00014668     0.00035425    -0.00041459
C        -1.86536195     1.65310094     0.04269306     0.00056153     0.00062675     0.00000986
H        -2.45112198     2.49857469    -0.23190163    -0.00025660     0.00081268     0.00008810
N        -0.54997350     1.91157977     0.18733546    -0.00003986    -0.00014528    -0.00011714
H        -0.23918849     2.87111590     0.16185275    -0.00075292    -0.00023852     0.00053799
H         0.00647394     1.20031687     0.61358215    -0.00032042    -0.00070154     0.00060589
    14
  Step:     1            Position(A)                                  Velocity(au)
C        -6.05128992    -0.65737535    -0.09774775    -0.00011166     0.00018543     0.00012187
C        -4.72918879    -0.76516718     0.13208713     0.00041482    -0.00014593     0.00007133
H        -6.47108152     0.28244869    -0.44251325     0.00037499     0.00024374    -0.00132249
H        -6.74932932    -1.51507756     0.12042013     0.00008704    -0.00152456     0.00025504
H        -4.31094956    -1.72796193     0.38882723    -0.00138598    -0.00074268    -0.00066367
C        -3.83305783     0.35273252    -0.08674889    -0.00029566    -0.00000093    -0.00008036
C        -2.49758076     0.38188896     0.15930594    -0.00029006    -0.00025221     0.00012283
H        -4.20351607     1.40157185    -0.30101790    -0.00030779    -0.00114111    -0.00044672
H        -1.84037873    -0.49353350     0.32150648    -0.00028629     0.00041666    -0.00040491
C        -1.85924808     1.65992835     0.04281402     0.00054779     0.00061850     0.00001155
H        -2.45473894     2.50822650    -0.23122327    -0.00038309     0.00092847     0.00004332
N        -0.55038100     1.90998249     0.18605119    -0.00003032    -0.00014881    -0.00011626
H        -0.24706655     2.86862520     0.16781900    -0.00067492    -0.00020116     0.00055421
H         0.00393757     1.19229697     0.62056620    -0.00016316    -0.00073604     0.00065495
    14
  Step:     2            Position(A)                                  Velocity(au)
C        -6.05284463    -0.65541834    -0.09639687    -0.00017010     0.00017053     0.00012541
C        -4.72436070    -0.76669386     0.13282337     0.00046135    -0.00013284     0.00006229
H        -6.46726180     0.28515380    -0.45705657     0.00032417     0.00023674    -0.00132843
H        -6.74763956    -1.53066447     0.12273712     0.00023448    -0.00129357     0.00016288
H        -4.32576838    -1.73636838     0.38195844    -0.00130733    -0.00079953    -0.00058775
C        -3.83676816     0.35275685    -0.08764338    -0.00037830     0.00000296    -0.00008235
C        -2.50021645     0.37917867     0.16067650    -0.00019277    -0.00023777     0.00012653
H        -4.20744999     1.38742247    -0.30596013    -0.00042077    -0.00141362    -0.00046035
H        -1.84423141    -0.48872412     0.31715743    -0.00040553     0.00044184    -0.00038469
C        -1.85337805     1.66663182     0.04294564     0.00051684     0.00060432     0.00001173
H        -2.45950278     2.51888677    -0.23095385    -0.00046326     0.00099366     0.00001466
N        -0.55063679     1.90832434     0.18479211    -0.00001187    -0.00015617    -0.00011242
H        -0.25395360     2.86671504     0.17397717    -0.00057352    -0.00013656     0.00057305
H         0.00290450     1.18421457     0.62791046    -0.00004770    -0.00071124     0.00066994
    14
  Step:     3            Position(A)                                  Velocity(au)
C        -6.05501124    -0.65364460    -0.09500406    -0.00022247     0.00015263     0.00012935
C        -4.71909584    -0.76807321     0.13344983     0.00049435    -0.00011945     0.00005142
H        -6.46398960     0.28762779    -0.47157528     0.00027522     0.00020163    -0.00131751
H        -6.74419955    -1.54337692     0.12398334     0.00039957    -0.00100846     0.00006162
H        -4.33954985    -1.74545308     0.37596899    -0.00119902    -0.00086158    -0.00050462
C        -3.84133392     0.35279734    -0.08855038    -0.00045141     0.00000128    -0.00008244
C        -2.50179787     0.37668724     0.16207400    -0.00009817    -0.00021193     0.00012765
H        -4.21272130     1.37064610    -0.31108886    -0.00055485    -0.00161210    -0.00048325
H        -1.84925039    -0.48386743     0.31309075    -0.00049543     0.00042195    -0.00035307
C        -1.84794125     1.67314891     0.04307069     0.00046910     0.00058453     0.00001041
H        -2.46487370     2.52996481    -0.23090265    -0.00049359     0.00100468     0.00000362
N        -0.55064065     1.90656602     0.18359177     0.00001552    -0.00016652    -0.00010560
H        -0.25961339     2.86563778     0.18035547    -0.00045303    -0.00005499     0.00059431
H         0.00289402     1.17673722     0.63522233     0.00002467    -0.00062775     0.00064964
    14
  Step:     4            Position(A)                                  Velocity(au)
C        -6.05771163    -0.65207935    -0.09356701    -0.00026691     0.00013305     0.00013331
C        -4.71354577    -0.76930704     0.13394821     0.00051352    -0.00010673     0.00003908
H        -6.46124084     0.28956495    -0.48587953     0.00022845     0.00013968    -0.00128916
H        -6.73889817    -1.55272649     0.12408526     0.00056796    -0.00068803    -0.00004409
H        -4.35199928    -1.75521703     0.37091895    -0.00106683    -0.00091784    -0.00041776
C        -3.84664354     0.35278478    -0.08944696    -0.00051390    -0.00000740    -0.00008026
C        -2.50236420     0.37454236     0.16346909    -0.00000779    -0.00017431     0.00012605
H        -4.21958850     1.35215465    -0.31653211    -0.00071475    -0.00171938    -0.00052026
H        -1.85506999    -0.47949312     0.30943334    -0.00054916     0.00035208    -0.00031014
C        -1.84311565     1.67941952     0.04317328     0.00040616     0.00055924     0.00000779
H        -2.47030107     2.54086609    -0.23087467    -0.00047515     0.00096368     0.00000972
N        -0.55029718     1.90468135     0.18248186     0.00005097    -0.00017843    -0.00009612
H        -0.26386442     2.86551212     0.18697888    -0.00031880     0.00003029     0.00061750
H         0.00344412     1.17048129     0.64212253     0.00005803    -0.00049347     0.00059720
    14
  Step:     5            Position(A)                                  Velocity(au)
C        -6.06085032    -0.65073393    -0.09208758    -0.00030212     0.00011301     0.00013690
C        -4.70786168    -0.77040816     0.13430481     0.00051924    -0.00009561     0.00002573
H        -6.45899177     0.29068355    -0.49977810     0.00018359     0.00005386    -0.00124374
H        -6.73177424    -1.55842882     0.12301872     0.00072644    -0.00035091    -0.00014978
H        -4.36288873    -1.76553260     0.36682962    -0.00091678    -0.00095665    -0.00033057
C        -3.85257655     0.35263540    -0.09030633    -0.00056544    -0.00002420    -0.00007553
C        -2.50196837     0.37287395     0.16483168     0.00007755    -0.00012488     0.00012177
H        -4.22835791     1.33303146    -0.32247064    -0.00090372    -0.00172330    -0.00057574
H        -1.86126441    -0.47616504     0.30630579    -0.00056312     0.00023149    -0.00025704
C        -1.83905564     1.68538345     0.04324114     0.00033064     0.00052833     0.00000429
H        -2.47526841     2.55104708    -0.23068995    -0.00041265     0.00087717     0.00003094
N        -0.54952560     1.90266255     0.18148896     0.00009274    -0.00019012    -0.00008453
H        -0.26658777     2.86630043     0.19386455    -0.00017652     0.00010508     0.00064163
H         0.00416347     1.16594173     0.64828732     0.00006045    -0.00032161     0.00051899
    14
  Step:     6            Position(A)                                  Velocity(au)
C        -6.06432111    -0.64960695    -0.09057209    -0.00032747     0.00009368     0.00013968
C        -4.70218644    -0.77139870     0.13451110     0.00051272    -0.00008672     0.00001183
H        -6.45722450     0.29074324    -0.51308878     0.00013989    -0.00005140    -0.00118248
H        -6.72300587    -1.56040334     0.12080846     0.00086257    -0.00001593    -0.00025099
H        -4.37205566    -1.77614561     0.36368716    -0.00075452    -0.00096739    -0.00024593
C        -3.85901354     0.35225541    -0.09109937    -0.00060684    -0.00004973    -0.00006816
C        -2.50066761     0.37181044     0.16613309     0.00015814    -0.00006393     0.00011505
H        -4.23935909     1.31445408    -0.32912748    -0.00112197    -0.00162079    -0.00065255
H        -1.86738922    -0.47442885     0.30381018    -0.00053796     0.00006488    -0.00019614
C        -1.83588218     1.69097777     0.04326724     0.00024595     0.00049140     0.00000046
H        -2.47932848     2.56005576    -0.23019789    -0.00031350     0.00075457     0.00006421
N        -0.54826827     1.90052221     0.18063250     0.00013838    -0.00019977    -0.00007155
H        -0.26772620     2.86781088     0.20101576    -0.00003153     0.00015653     0.00066520
H         0.00476663     1.16344548     0.65347635     0.00004246    -0.00012869     0.00042335
    14
  Step:     7            Position(A)                                  Velocity(au)
C        -6.06801426    -0.64868447    -0.08903186    -0.00034304     0.00007623     0.00014115
C        -4.69664497    -0.77230524     0.13456370     0.00049618    -0.00008010    -0.00000215
H        -6.45593132     0.28955917    -0.52564714     0.00009632    -0.00017057    -0.00110743
H        -6.71290380    -1.55877732     0.11752784     0.00096438     0.00029758    -0.00034321
H        -4.37939539    -1.78669614     0.36144934    -0.00058486    -0.00094198    -0.00016607
C        -3.86585232     0.35154735    -0.09179742    -0.00064061    -0.00008399    -0.00005835
C        -2.49850871     0.37147541     0.16734867     0.00023569     0.00000796     0.00010638
H        -4.25290311     1.29757358    -0.33674646    -0.00136498    -0.00142163    -0.00075092
H        -1.87303337    -0.47474563     0.30201487    -0.00047922    -0.00013679    -0.00013121
C        -1.83367498     1.69613374     0.04325122     0.00015608     0.00044776    -0.00000306
H        -2.48212691     2.56755467    -0.22928530    -0.00018680     0.00060681     0.00010595
N        -0.54649830     1.89829223     0.17992359     0.00018480    -0.00020576    -0.00005795
H        -0.26727756     2.86972474     0.20841699     0.00011168     0.00017509     0.00068631
H         0.00509242     1.16312634     0.65754880     0.00001578     0.00006721     0.00031962
    14
  Step:     8            Position(A)                                  Velocity(au)
C        -6.07182572    -0.64793937    -0.08748413    -0.00034985     0.00006190     0.00014073
C        -4.69133163    -0.77315097     0.13446411     0.00047304    -0.00007506    -0.00001579
H        -6.45511742     0.28701176    -0.53731602     0.00005163    -0.00029743    -0.00102157
H        -6.70190826    -1.55389318     0.11330015     0.00102004     0.00056952    -0.00042176
H        -4.38485060    -1.79675333     0.36005409    -0.00041164    -0.00087583    -0.00009242
C        -3.87302807     0.35041806    -0.09237587    -0.00067084    -0.00012618    -0.00004663
C        -2.49551142     0.37198467     0.16846043     0.00031310     0.00008988     0.00009645
H        -4.26922071     1.28335328    -0.34555531    -0.00162232    -0.00115022    -0.00086720
H        -1.87787305    -0.47742140     0.30093966    -0.00039680    -0.00035667    -0.00006709
C        -1.83246758     1.70077331     0.04320027     0.00006532     0.00039651    -0.00000558
H        -2.48341510     2.57333084    -0.22788003    -0.00004253     0.00044541     0.00015234
N        -0.54422550     1.89602074     0.17936474     0.00022855    -0.00020681    -0.00004449
H        -0.26528303     2.87164126     0.21603008     0.00024975     0.00015570     0.00070286
H         0.00511194     1.16491584     0.66046864    -0.00000756     0.00024788     0.00021724
    14
  Step:     9            Position(A)                                  Velocity(au)
C        -6.07566794    -0.64733028    -0.08595301    -0.00034969     0.00005200     0.00013784
C        -4.68629625    -0.77394734     0.13421816     0.00044747    -0.00007053    -0.00002875
H        -6.45480172     0.28305233    -0.54799596     0.00000473    -0.00042538    -0.00092878
H        -6.69058845    -1.54631789     0.10830097     0.00101821     0.00077945    -0.00048191
H        -4.38840079    -1.80585663     0.35942739    -0.00023770    -0.00076822    -0.00002570
C        -3.88052826     0.34878692    -0.09281752    -0.00070166    -0.00017452    -0.00003372
C        -2.49165913     0.37344165     0.16945860     0.00039281     0.00018008     0.00008587
H        -4.28839446     1.27241025    -0.35571820    -0.00187790    -0.00084333    -0.00099319
H        -1.88171420    -0.48254839     0.30054723    -0.00030352    -0.00057377    -0.00000852
C        -1.83224599     1.70480807     0.04312905    -0.00002219     0.00033710    -0.00000654
H        -2.48305742     2.57729885    -0.22595264     0.00010890     0.00028182     0.00019945
N        -0.54149835     1.89376785     0.17895033     0.00026644    -0.00020205    -0.00003187
H        -0.26181382     2.87313096     0.22379335     0.00038044     0.00009818     0.00071297
H         0.00492705     1.16854910     0.66230129    -0.00001615     0.00039639     0.00012518
    14
  Step:    10            Position(A)                                  Velocity(au)
C        -6.07947595    -0.64680187    -0.08446861    -0.00034408     0.00004763     0.00013213
C        -4.68154244    -0.77469387     0.13383515     0.00042244    -0.00006610    -0.00004075
H        -6.45501388     0.27770584    -0.55763493    -0.00004528    -0.00054755    -0.00083360
H        -6.67963295    -1.53684125     0.10275750     0.00094882     0.00090785    -0.00051928
H        -4.39005075    -1.81355961     0.35949191    -0.00006504    -0.00062228     0.00003414
C        -3.88837815     0.34660007    -0.09311364    -0.00073402    -0.00022547    -0.00002037
C        -2.48691793     0.37592434     0.17033901     0.00047400     0.00027522     0.00007483
H        -4.31030334     1.26490377    -0.36728320    -0.00211212    -0.00054360    -0.00111628
H        -1.88451321    -0.48997364     0.30075325    -0.00021289    -0.00076582     0.00004148
C        -1.83295311     1.70814810     0.04305728    -0.00010294     0.00027036    -0.00000562
H        -2.48103268     2.57949627    -0.22351658     0.00025705     0.00012684     0.00024345
N        -0.53839657     1.89160057     0.17866747     0.00029642    -0.00019111    -0.00002074
H        -0.25696027     2.87378907     0.23162768     0.00050217     0.00000669     0.00071563
H         0.00475871     1.17358760     0.66320719    -0.00000047     0.00049898     0.00005179
    14
  Step:    11            Position(A)                                  Velocity(au)
C        -6.08319546    -0.64628821    -0.08306245    -0.00033300     0.00004944     0.00012375
C        -4.67705466    -0.77539334     0.13332677     0.00039781    -0.00006291    -0.00005161
H        -6.45579236     0.27107363    -0.56623261    -0.00009916    -0.00065681    -0.00074052
H        -6.66983114    -1.52645704     0.09694066     0.00080482     0.00093883    -0.00053079
H        -4.38982356    -1.81947023     0.36017432     0.00010495    -0.00044439     0.00008789
C        -3.89658627     0.34385427    -0.09326323    -0.00076428    -0.00027358    -0.00000730
C        -2.48128948     0.37946271     0.17109573     0.00055173     0.00037038     0.00006294
H        -4.33460123     1.26051805    -0.38013900    -0.00230552    -0.00029068    -0.00122178
H        -1.88637153    -0.49930226     0.30145473    -0.00013680    -0.00091239     0.00008231
C        -1.83449807     1.71072273     0.04300600    -0.00017430     0.00019865    -0.00000285
H        -2.47743393     2.58007364    -0.22062662     0.00039171    -0.00000968     0.00028077
N        -0.53501363     1.88958697     0.17849667     0.00031792    -0.00017419    -0.00001164
H        -0.25082794     2.87327738     0.23944911     0.00061376    -0.00011110     0.00071091
H         0.00491686     1.17946520     0.66343433     0.00004567     0.00054666     0.00000431
    14
  Step:    12            Position(A)                                  Velocity(au)
C        -6.08676093    -0.64572028    -0.08176136    -0.00031512     0.00005725     0.00011328
C        -4.67283965    -0.77607022     0.13270607     0.00037086    -0.00006303    -0.00006124
H        -6.45718322     0.26333681    -0.57383525    -0.00015762    -0.00074594    -0.00065347
H        -6.66202607    -1.51630263     0.09114537     0.00058475     0.00086435    -0.00051550
H        -4.38775485    -1.82328139     0.36141477     0.00027125    -0.00024313     0.00013707
C        -3.90509827     0.34061490    -0.09327323    -0.00078707    -0.00031298     0.00000473
C        -2.47484771     0.38402720     0.17171586     0.00062008     0.00046064     0.00004964
H        -4.36074108     1.25854461    -0.39401207    -0.00244243    -0.00011371    -0.00129681
H        -1.88750602    -0.50993391     0.30255404    -0.00008368    -0.00099747     0.00011452
C        -1.83676618     1.71249388     0.04299500    -0.00023434     0.00012467     0.00000171
H        -2.47246320     2.57928457    -0.21737416     0.00050344    -0.00011868     0.00030835
N        -0.53144144     1.88778980     0.17841278     0.00033126    -0.00015206    -0.00000498
H        -0.24353316     2.87135856     0.24718012     0.00071463    -0.00024477     0.00069949
H         0.00575788     1.18554694     0.66330141     0.00012426     0.00053610    -0.00001268
    14
  Step:    13            Position(A)                                  Velocity(au)
C        -6.09008933    -0.64503571    -0.08058433    -0.00028944     0.00006990     0.00010147
C        -4.66894139    -0.77677226     0.13198693     0.00033863    -0.00006816    -0.00006957
H        -6.45924069     0.25475477    -0.58052862    -0.00022133    -0.00080822    -0.00057582
H        -6.65703867    -1.50754766     0.08566305     0.00029545     0.00068894    -0.00047523
H        -4.38388947    -1.82478910     0.36317289     0.00043314    -0.00002839     0.00018358
C        -3.91380483     0.33700726    -0.09315975    -0.00079870    -0.00033925     0.00001489
C        -2.46772394     0.38954009     0.17218171     0.00067524     0.00054239     0.00003473
H        -4.38803405     1.25803042    -0.40850922    -0.00251331    -0.00002764    -0.00133319
H        -1.88820219    -0.52112381     0.30396015    -0.00005744    -0.00101126     0.00013846
C        -1.83962463     1.71345007     0.04304342    -0.00028157     0.00005040     0.00000802
H        -2.46642027     2.57747737    -0.21388087     0.00058412    -0.00019213     0.00032375
N        -0.52776670     1.88626027     0.17838774     0.00033691    -0.00012605    -0.00000082
H        -0.23519395     2.86792259     0.25475178     0.00080508    -0.00038197     0.00068212
H         0.00763523     1.19119337     0.66315686     0.00023261     0.00047005     0.00000089
    14
  Step:    14            Position(A)                                  Velocity(au)
C        -6.09309308    -0.64419110    -0.07954150    -0.00025634     0.00008506     0.00008918
C        -4.66543142    -0.77756126     0.13118403     0.00029923    -0.00007915    -0.00007654
H        -6.46202524     0.24565551    -0.58643243    -0.00029059    -0.00083822    -0.00051036
H        -6.65556243    -1.50123068     0.08074875    -0.00004623     0.00043289    -0.00041474
H        -4.37827915    -1.82390243     0.36543088     0.00059006     0.00018923     0.00022948
C        -3.92257139     0.33319324    -0.09294750    -0.00079780    -0.00035004     0.00002251
C        -2.46007545     0.39589306     0.17247555     0.00071569     0.00061336     0.00001832
H        -4.41572445     1.25793982    -0.42317818    -0.00251529    -0.00003369    -0.00132797
H        -1.88876257    -0.53205708     0.30558314    -0.00005768    -0.00095056     0.00015429
C        -1.84292597     1.71359651     0.04317052    -0.00031485    -0.00002275     0.00001607
H        -2.45968453     2.57508135    -0.21029147     0.00062776    -0.00022393     0.00032531
N        -0.52407094     1.88503227     0.17839478     0.00033546    -0.00009795     0.00000115
H        -0.22592041     2.86300220     0.26210274     0.00088612    -0.00050957     0.00065952
H         0.01084663     1.19583027     0.66332084     0.00036320     0.00035773     0.00003977
    14
  Step:    15            Position(A)                                  Velocity(au)
C        -6.09569731    -0.64317496    -0.07863340    -0.00021760     0.00009937     0.00007728
C        -4.66239521    -0.77850379     0.13031257     0.00025184    -0.00009613    -0.00008211
H        -6.46559792     0.23641721    -0.59169381    -0.00036507    -0.00083255    -0.00045909
H        -6.65804999    -1.49807746     0.07658985    -0.00041418     0.00013140    -0.00034118
H        -4.37098078    -1.82064937     0.36819311     0.00074160     0.00039881     0.00027676
C        -3.93125817     0.32934954    -0.09266720    -0.00078431    -0.00034470     0.00002720
C        -2.45206675     0.40295860     0.17258252     0.00074112     0.00067209     0.00000075
H        -4.44306078     1.25729341    -0.43756109    -0.00245116    -0.00012255    -0.00128243
H        -1.88946405    -0.54191922     0.30733545    -0.00008064    -0.00081824     0.00016242
C        -1.84651266     1.71295229     0.04339509    -0.00033354    -0.00009341     0.00002575
H        -2.45268677     2.57257845    -0.20676408     0.00063137    -0.00021121     0.00031241
N        -0.52042776     1.88411747     0.17841283     0.00032786    -0.00006993     0.00000161
H        -0.21580839     2.85677486     0.26917997     0.00095916    -0.00061490     0.00063252
H         0.01558084     1.19901933     0.66402693     0.00050409     0.00021415     0.00009394
    14
  Step:    16            Position(A)                                  Velocity(au)
C        -6.09785342    -0.64201722    -0.07785092    -0.00017592     0.00010899     0.00006658
C        -4.65992200    -0.77966433     0.12938767     0.00019646    -0.00011866    -0.00008634
H        -6.47001177     0.22744196    -0.59647589    -0.00044353    -0.00079053    -0.00042271
H        -6.66462335    -1.49835602     0.07328476    -0.00077669    -0.00017128    -0.00026282
H        -4.36205524    -1.81517769     0.37148545     0.00088742     0.00058962     0.00032733
C        -3.93972977     0.32565220    -0.09235247    -0.00075892    -0.00032380     0.00002880
C        -2.44386208     0.41059635     0.17249192     0.00075167     0.00071755    -0.00001759
H        -4.46934832     1.25525882    -0.45123375    -0.00232754    -0.00027872    -0.00120076
H        -1.89052664    -0.54995758     0.30913639    -0.00012029    -0.00062205     0.00016369
C        -1.85022282     1.71155305     0.04373390    -0.00033751    -0.00015981     0.00003678
H        -2.44587204     2.57046064    -0.20345695     0.00059559    -0.00015545     0.00028573
N        -0.51689847     1.88350239     0.17843005     0.00031537    -0.00004428     0.00000151
H        -0.20493693     2.84955013     0.27594038     0.00102569    -0.00068716     0.00060208
H         0.02187453     1.20051527     0.66537602     0.00064043     0.00005822     0.00015023
    14
  Step:    17            Position(A)                                  Velocity(au)
C        -6.09954595    -0.64079049    -0.07717692    -0.00013435     0.00011042     0.00005765
C        -4.65809736    -0.78109973     0.12842365     0.00013370    -0.00014582    -0.00008934
H        -6.47530096     0.21912287    -0.60094138    -0.00052365    -0.00071473    -0.00040019
H        -6.67504161    -1.50182460     0.07084023    -0.00110228    -0.00043132    -0.00018727
H        -4.35156670    -1.80775028     0.37535419     0.00102724     0.00075170     0.00038298
C        -3.94786100     0.32226586    -0.09203712    -0.00072272    -0.00028873     0.00002741
C        -2.43562264     0.41865639     0.17219763     0.00074766     0.00074897    -0.00003628
H        -4.49398020     1.25119581    -0.46383002    -0.00215319    -0.00048393    -0.00108892
H        -1.89209570    -0.55552766     0.31091649    -0.00016958    -0.00037320     0.00015924
C        -1.85389629     1.70945614     0.04419978    -0.00032717    -0.00021973     0.00004872
H        -2.43965719     2.56917759    -0.20051314     0.00052501    -0.00006321     0.00024743
N        -0.51352855     1.88314881     0.17844579     0.00029950    -0.00002306     0.00000185
H        -0.19336957     2.84174189     0.28235153     0.00108682    -0.00071876     0.00056908
H         0.02959157     1.20029290     0.66731347     0.00075684    -0.00009049     0.00019471
    14
  Step:    18            Position(A)                                  Velocity(au)
C        -6.10079263    -0.63960154    -0.07658963    -0.00009566     0.00010126     0.00005073
C        -4.65699711    -0.78285440     0.12743319     0.00006468    -0.00017631    -0.00009128
H        -6.48146761     0.21180595    -0.60523083    -0.00060191    -0.00061116    -0.00038851
H        -6.68873789    -1.50779190     0.06918780    -0.00136549    -0.00061444    -0.00012013
H        -4.33958237    -1.79873289     0.37986396     0.00116065     0.00087662     0.00044520
C        -3.95554076     0.31933569    -0.09175280    -0.00067717    -0.00024156     0.00002331
C        -2.42750549     0.42698157     0.17169823     0.00072952     0.00076579    -0.00005490
H        -4.51645342     1.24467188    -0.47505586    -0.00193777    -0.00071937    -0.00095374
H        -1.89423650    -0.55812213     0.31262017    -0.00022117    -0.00008520     0.00015045
C        -1.85738030     1.70674612     0.04479977    -0.00030344    -0.00027047     0.00006097
H        -2.43438639     2.56907774    -0.19804396     0.00042803     0.00005386     0.00020106
N        -0.51034636     1.88299791     0.17847042     0.00028179    -0.00000782     0.00000355
H        -0.18116064     2.83382588     0.28839020     0.00114300    -0.00070651     0.00053425
H         0.03843183     1.19853562     0.66963562     0.00083997    -0.00021492     0.00021522
    14
  Step:    19            Position(A)                                  Velocity(au)
C        -6.10163868    -0.63857523    -0.07606704    -0.00006198     0.00008067     0.00004564
C        -4.65668225    -0.78495680     0.12642672    -0.00000906    -0.00020858    -0.00009239
H        -6.48846884     0.20575256    -0.60944080    -0.00067368    -0.00048892    -0.00038273
H        -6.70491433    -1.51526660     0.06821217    -0.00155049    -0.00070141    -0.00006429
H        -4.32617520    -1.78857260     0.38509375     0.00128692     0.00095843     0.00051499
C        -3.96267537     0.31698133    -0.09152720    -0.00062392    -0.00018483     0.00001693
C        -2.41966310     0.43540955     0.17099658     0.00069765     0.00076766    -0.00007308
H        -4.53637257     1.23545821    -0.48469491    -0.00169119    -0.00096682    -0.00080249
H        -1.89693422    -0.55739152     0.31420784    -0.00026793     0.00022695     0.00013883
C        -1.86053471     1.70353911     0.04553359    -0.00026765    -0.00030911     0.00007283
H        -2.43029323     2.57035582    -0.19611456     0.00031574     0.00018025     0.00015120
N        -0.50736388     1.88297774     0.17852346     0.00026363     0.00000068     0.00000732
H        -0.16836419     2.82628570     0.29403931     0.00119360    -0.00065241     0.00049787
H         0.04796758     1.19559111     0.67202189     0.00088066    -0.00030314     0.00020338
    14
  Step:    20            Position(A)                                  Velocity(au)
C        -6.10214861    -0.63783678    -0.07559119    -0.00003469     0.00004929     0.00004187
C        -4.65719524    -0.78741749     0.12541208    -0.00008572    -0.00024101    -0.00009288
H        -6.49620558     0.20110988    -0.61360387    -0.00073352    -0.00035912    -0.00037649
H        -6.72265793    -1.52313650     0.06778141    -0.00165166    -0.00068844    -0.00002017
H        -4.31142843    -1.77776537     0.39113044     0.00140476     0.00099461     0.00059265
C        -3.96919020     0.31529212    -0.09138245    -0.00056471    -0.00012149     0.00000884
C        -2.41224303     0.44377562     0.17009936     0.00065252     0.00075453    -0.00009052
H        -4.55345152     1.22352093    -0.49261190    -0.00142357    -0.00120877    -0.00064273
H        -1.90009802    -0.55315722     0.31565728    -0.00030317     0.00054717     0.00012604
C        -1.86323565     1.69998385     0.04639297    -0.00022134    -0.00033276     0.00008357
H        -2.42747889     2.57302106    -0.19473614     0.00020031     0.00029885     0.00010278
N        -0.50457884     1.88301273     0.17863047     0.00024620     0.00000254     0.00001354