     6
  Step:   300            Position(A)                                  Velocity(au)
C        -0.03732685     0.03445031     0.02618639    -0.00003096     0.00003883     0.00003590
N        -0.05079947    -0.08378428     1.29459006    -0.00000346    -0.00005512    -0.00000239
H         0.92789138     0.07174830    -0.49563823     0.00009469     0.00141204     0.00029701
H         0.81023765    -0.08797715     1.84487239     0.00011422    -0.00138987    -0.00023209
H        -0.87960395     0.11052116     1.86975380     0.00020566     0.00177097    -0.00050134
H        -0.92072476    -0.01028018    -0.62906837     0.00000248    -0.00148987     0.00004191
