    14
  Step:   600            Position(A)                                  Velocity(au)
C        -5.55323624    -0.97954253    -0.28146107    -0.00028307    -0.00042128     0.00036727
C        -4.93120231     0.15490385     0.01994042     0.00018620     0.00020184    -0.00082583
H        -5.19392021    -1.93264283     0.06335830     0.00248202    -0.00152319     0.00032434
H        -6.53383117    -0.91456093    -0.74853776    -0.00131178     0.00033482     0.00069327
H        -5.36705283     1.07780189    -0.49640349     0.00135829     0.00180411     0.00197322
C        -3.52344132     0.48040337    -0.03671167    -0.00050575    -0.00023314     0.00022943
C        -2.41683082     0.12350810     0.80787428    -0.00014450    -0.00003992    -0.00009067
H        -3.38200738     0.60180044    -1.11941670     0.00071445     0.00486631     0.00099324
H        -2.39244770    -0.58543495     1.70719928     0.00107533    -0.00267269     0.00066485
C        -1.31331498     0.99537126     0.46273074     0.00005152     0.00057403    -0.00015690
H        -0.23367469     0.83066584     0.65410936    -0.00129505    -0.00023844     0.00132722
N        -1.59297511     2.12771999    -0.36433422     0.00030937    -0.00021445     0.00009576
H        -0.84677562     2.29930662    -1.03203639     0.00045294    -0.00058406    -0.00066701
H        -2.52013230     2.46670515    -0.53775670     0.00051334     0.00002176    -0.00095923
