     6
  Step:     0            Position(A)                                  Velocity(au)
C        -0.03940626     0.01135771     0.00440998     0.00005568     0.00008772     0.00006556
N        -0.04611078    -0.05880531     1.30822748     0.00009302    -0.00003378     0.00003595
H         0.93634327     0.01203673    -0.49189683     0.00029546    -0.00048619    -0.00044942
H         0.88713517    -0.06645894     1.86585188    -0.00095274     0.00019632    -0.00108057
H        -0.91878642    -0.02333826     1.85846515    -0.00088801    -0.00005881     0.00045489
H        -1.00729057     0.08982283    -0.57251799    -0.00041091    -0.00022711    -0.00020566
     6
  Step:     1            Position(A)                                  Velocity(au)
C        -0.03911625     0.01184347     0.00469022     0.00005028     0.00009000     0.00003660
N        -0.04557304    -0.05899772     1.30852584     0.00010213    -0.00003656     0.00007306
H         0.93808436     0.00938335    -0.49463065     0.00033725    -0.00048454    -0.00054792
H         0.88140965    -0.06536304     1.85971239    -0.00112945     0.00020443    -0.00115629
H        -0.92361073    -0.02365356     1.86103552    -0.00086536    -0.00005695     0.00047771
H        -1.00941070     0.08858137    -0.57370038    -0.00036092    -0.00022718    -0.00022490
     6
  Step:     2            Position(A)                                  Velocity(au)
C        -0.03885629     0.01234205     0.00481031     0.00004476     0.00009242     0.00000715
N        -0.04499375    -0.05920523     1.30902659     0.00010813    -0.00003931     0.00010971
H         0.94003196     0.00673714    -0.49788969     0.00037068    -0.00048369    -0.00064130
H         0.87478185    -0.06422300     1.85320500    -0.00128054     0.00021253    -0.00121396
H        -0.92825123    -0.02396110     1.86369006    -0.00082177    -0.00005595     0.00048623
H        -1.01123809     0.08733802    -0.57497785    -0.00030432    -0.00022783    -0.00024072
     6
  Step:     3            Position(A)                                  Velocity(au)
C        -0.03862681     0.01285416     0.00476837     0.00003918     0.00009494    -0.00002251
N        -0.04439056    -0.05942761     1.30972567     0.00011078    -0.00004201     0.00014534
H         0.94213804     0.00409377    -0.50164387     0.00039496    -0.00048353    -0.00072880
H         0.86740577    -0.06303881     1.84643656    -0.00140074     0.00022063    -0.00125044
H        -0.93259755    -0.02426539     1.86635292    -0.00075879    -0.00005572     0.00048137
H        -1.01273871     0.08608989    -0.57633291    -0.00024185    -0.00022891    -0.00025355
     6
  Step:     4            Position(A)                                  Velocity(au)
C        -0.03842782     0.01338027     0.00456419     0.00003365     0.00009752    -0.00005204
N        -0.04378233    -0.05966458     1.31061588     0.00010988    -0.00004464     0.00017934
H         0.94435099     0.00144961    -0.50585931     0.00040957    -0.00048394    -0.00080974
H         0.85946426    -0.06181035     1.83953100    -0.00148481     0.00022876    -0.00126268
H        -0.93654890    -0.02457046     1.86895404    -0.00067839    -0.00005618     0.00046433
H        -1.01388276     0.08483478    -0.57775054    -0.00017433    -0.00023033    -0.00026385
     6
  Step:     5            Position(A)                                  Velocity(au)
C        -0.03825885     0.01392062     0.00419928     0.00002824     0.00010012    -0.00008113
N        -0.04318898    -0.05991578     1.31168679     0.00010525    -0.00004721     0.00021113
H         0.94661690    -0.00119834    -0.51049884     0.00041421    -0.00048483    -0.00088362
H         0.85116861    -0.06053719     1.83262853    -0.00152779     0.00023701    -0.00124792
H        -0.94001606    -0.02487978     1.87143058    -0.00058284    -0.00005722     0.00043652
H        -1.01464515     0.08357116    -0.57921829    -0.00010271    -0.00023196    -0.00027211
     6
  Step:     6            Position(A)                                  Velocity(au)
C        -0.03811901     0.01447525     0.00367690     0.00002303     0.00010271    -0.00010947
N        -0.04263130    -0.06018086     1.31292485     0.00009678    -0.00004971     0.00024018
H         0.94888084    -0.00385255    -0.51552274     0.00040880    -0.00048611    -0.00095003
H         0.84275603    -0.05921837     1.82588344    -0.00152545     0.00024550    -0.00120397
H        -0.94292296    -0.02519623     1.87372793    -0.00047468    -0.00005873     0.00039955
H        -1.01500603     0.08229806    -0.58072635    -0.00002798    -0.00023371    -0.00027881
     6
  Step:     7            Position(A)                                  Velocity(au)
C        -0.03800700     0.01504398     0.00300203     0.00001810     0.00010525    -0.00013674
N        -0.04213050    -0.06045946     1.31431373     0.00008443    -0.00005215     0.00026603
H         0.95108797    -0.00651505    -0.52088951     0.00039346    -0.00048774    -0.00100876
H         0.83448445    -0.05785215     1.81946050    -0.00147472     0.00025439    -0.00112938
H        -0.94520771    -0.02552214     1.87580054    -0.00035659    -0.00006062     0.00035514
H        -1.01495114     0.08101507    -0.58226771     0.00004881    -0.00023549    -0.00028450
     6
  Step:     8            Position(A)                                  Velocity(au)
C        -0.03792108     0.01562652     0.00218125     0.00001352     0.00010773    -0.00016268
N        -0.04170773    -0.06075126     1.31583476     0.00006831    -0.00005454     0.00028832
H         0.95318462    -0.00918759    -0.52655672     0.00036852    -0.00048970    -0.00105974
H         0.82662525    -0.05643576     1.81353005    -0.00137416     0.00026392    -0.00102379
H        -0.94682335    -0.02585927     1.87761249    -0.00023134    -0.00006277     0.00030509
H        -1.01447213     0.07972223    -0.58383825     0.00012656    -0.00023724    -0.00028971
     6
  Step:     9            Position(A)                                  Velocity(au)
C        -0.03785910     0.01622242     0.00122251     0.00000938     0.00011013    -0.00018706
N        -0.04138329    -0.06105602     1.31746766     0.00004862    -0.00005689     0.00030683
H         0.95511920    -0.01187179    -0.53248183     0.00033444    -0.00049197    -0.00110305
H         0.81945271    -0.05496517     1.80826143    -0.00122434     0.00027431    -0.00088803
H        -0.94773828    -0.02620882     1.87913792    -0.00010175    -0.00006511     0.00025127
H        -1.01356668     0.07841996    -0.58543678     0.00020418    -0.00023889    -0.00029499
     6
  Step:    10            Position(A)                                  Velocity(au)
C        -0.03781851     0.01683119     0.00013499     0.00000574     0.00011243    -0.00020969
N        -0.04117585    -0.06137357     1.31919121     0.00002576    -0.00005923     0.00032147
H         0.95684307    -0.01456928    -0.53862308     0.00029179    -0.00049457    -0.00113891
H         0.81323212    -0.05343503     1.80381581    -0.00102816     0.00028582    -0.00072433
H        -0.94793642    -0.02657147     1.88036118     0.00002936    -0.00006751     0.00019555
H        -1.01223856     0.07710899    -0.58706512     0.00028058    -0.00024040    -0.00030088
     6
  Step:    11            Position(A)                                  Velocity(au)
C        -0.03779636     0.01745229    -0.00107120     0.00000267     0.00011465    -0.00023041
N        -0.04110148    -0.06170387     1.32098412     0.00000029    -0.00006157     0.00033229
H         0.95831103    -0.01728176    -0.54494004     0.00024124    -0.00049752    -0.00116761
H         0.80820603    -0.05183867     1.80033816    -0.00079100     0.00029866    -0.00053634
H        -0.94741715    -0.02694734     1.88127698     0.00015919    -0.00006990     0.00013981
H        -1.01049749     0.07579027    -0.58872802     0.00035469    -0.00024173    -0.00030792
     6
  Step:    12            Position(A)                                  Velocity(au)
C        -0.03778931     0.01808517    -0.00238518     0.00000025     0.00011676    -0.00024910
N        -0.04117271    -0.06204699     1.32282575    -0.00002708    -0.00006393     0.00033948
H         0.95948170    -0.02001105    -0.55139404     0.00018348    -0.00050084    -0.00118947
H         0.80458042    -0.05016833     1.79794951    -0.00052063     0.00031301    -0.00032901
H        -0.94619520    -0.02733603     1.88189033     0.00028498    -0.00007217     0.00008590
H        -1.00835911     0.07446501    -0.59043307     0.00042544    -0.00024283    -0.00031661
     6
  Step:    13            Position(A)                                  Velocity(au)
C        -0.03779365     0.01872923    -0.00379546    -0.00000146     0.00011877    -0.00026566
N        -0.04139762    -0.06240307     1.32469676    -0.00005546    -0.00006633     0.00034329
H         0.96031761    -0.02275906    -0.55794833     0.00011921    -0.00050451    -0.00120477
H         0.80251224    -0.04841549     1.79674008    -0.00022694     0.00032894    -0.00010844
H        -0.94430051    -0.02773660     1.88221645     0.00040395    -0.00007421     0.00003570
H        -1.00584477     0.07313463    -0.59219054     0.00049179    -0.00024365    -0.00032741
     6
  Step:    14            Position(A)                                  Velocity(au)
C        -0.03780529     0.01938386    -0.00529005    -0.00000239     0.00012065    -0.00027998
N        -0.04177913    -0.06277229     1.32657955    -0.00008386    -0.00006876     0.00034407
H         0.96078525    -0.02552767    -0.56456781     0.00004916    -0.00050850    -0.00121377
H         0.80209890    -0.04657150     1.79676380     0.00007857     0.00034640     0.00011842
H        -0.94177814    -0.02814750     1.88228073     0.00051332    -0.00007592    -0.00000895
H        -1.00298157     0.07180079    -0.59401314     0.00055267    -0.00024413    -0.00034071
     6
  Step:    15            Position(A)                                  Velocity(au)
C        -0.03781977     0.02004837    -0.00685653    -0.00000247     0.00012240    -0.00029197
N        -0.04231446    -0.06315484     1.32845853    -0.00011121    -0.00007121     0.00034215
H         0.96085505    -0.02831857    -0.57121879    -0.00002594    -0.00051273    -0.00121662
H         0.80337122    -0.04462824     1.79803477     0.00038342     0.00036520     0.00034414
H        -0.93868821    -0.02856662     1.88211855     0.00061030    -0.00007717    -0.00004624
H        -0.99980225     0.07046551    -0.59591563     0.00060702    -0.00024419    -0.00035685
     6
  Step:    16            Position(A)                                  Velocity(au)
C        -0.03783232     0.02072198    -0.00848199    -0.00000166     0.00012397    -0.00030152
N        -0.04299493    -0.06355079     1.33032015    -0.00013643    -0.00007365     0.00033789
H         0.96050164    -0.03113309    -0.57786853    -0.00010527    -0.00051710    -0.00121341
H         0.80629064    -0.04257889     1.80052611     0.00067500     0.00038504     0.00056129
H        -0.93510594    -0.02899116     1.88177519     0.00069212    -0.00007784    -0.00007437
H        -0.99634525     0.06913117    -0.59791443     0.00065378    -0.00024375    -0.00037606
     6
  Step:    17            Position(A)                                  Velocity(au)
C        -0.03783790     0.02140375    -0.01015303     0.00000010     0.00012534    -0.00030854
N        -0.04380608    -0.06396010     1.33215271    -0.00015851    -0.00007606     0.00033160
H         0.95970412    -0.03397198    -0.58448492    -0.00018795    -0.00052148    -0.00120421
H         0.81075092    -0.04041864     1.80417126     0.00094139     0.00040546     0.00076285
H        -0.93112135    -0.02941768     1.88130547     0.00075608    -0.00007782    -0.00009165
H        -0.99265451     0.06780060    -0.60002704     0.00069193    -0.00024272    -0.00039846
     6
  Step:    18            Position(A)                                  Velocity(au)
C        -0.03783127     0.02209256    -0.01185577     0.00000281     0.00012647    -0.00031293
N        -0.04472815    -0.06438249     1.33394612    -0.00017653    -0.00007838     0.00032353
H         0.95844649    -0.03683531    -0.59103616    -0.00027299    -0.00052572    -0.00118905
H         0.81658445    -0.03814527     1.80886769     0.00117218     0.00042595     0.00094270
H        -0.92683840    -0.02984208     1.88077306     0.00079978    -0.00007698    -0.00009656
H        -0.98877923     0.06647712    -0.60227143     0.00072053    -0.00024100    -0.00042405
     6
  Step:    19            Position(A)                                  Velocity(au)
C        -0.03780713     0.02278711    -0.01357589     0.00000649     0.00012733    -0.00031462
N        -0.04573693    -0.06481745     1.33569151    -0.00018977    -0.00008057     0.00031388
H         0.95671819    -0.03972237    -0.59749079    -0.00035928    -0.00052964    -0.00116803
H         0.82357230    -0.03575958     1.81448263     0.00135899     0.00044593     0.00109587
H        -0.92237334    -0.03025964     1.88024931     0.00082123    -0.00007523    -0.00008789
H        -0.98477331     0.06516448    -0.60466533     0.00073881    -0.00023857    -0.00045272
     6
  Step:    20            Position(A)                                  Velocity(au)
C        -0.03776027     0.02348591    -0.01529867     0.00001109     0.00012788    -0.00031357
N        -0.04680482    -0.06526419     1.33738096    -0.00019775    -0.00008258     0.00030282
H         0.95451487    -0.04263119    -0.60381795    -0.00044567    -0.00053311    -0.00114133
H         0.83145598    -0.03326541     1.82085978     0.00149611     0.00046486     0.00121884
H        -0.91785163    -0.03066532     1.87981124     0.00081908    -0.00007251    -0.00006482
H        -0.98069444     0.06386645    -0.60722560     0.00074622    -0.00023536    -0.00048422
     6
  Step:    21            Position(A)                                  Velocity(au)
C        -0.03768567     0.02418731    -0.01700927     0.00001657     0.00012811    -0.00030978
N        -0.04790217    -0.06572171     1.33900718    -0.00020023    -0.00008438     0.00029044
H         0.95183837    -0.04555965    -0.60998778    -0.00053095    -0.00053610    -0.00110926
H         0.83995388    -0.03066960     1.82782826     0.00158064     0.00048223     0.00130972
H        -0.91340490    -0.03105355     1.87953959     0.00079270    -0.00006874    -0.00002698
H        -0.97660262     0.06258745    -0.60996725     0.00074252    -0.00023130    -0.00051813
     6
  Step:    22            Position(A)                                  Velocity(au)
C        -0.03757871     0.02488960    -0.01869298     0.00002283     0.00012801    -0.00030333
N        -0.04899872    -0.06618875     1.34056333    -0.00019723    -0.00008593     0.00027686
H         0.94869726    -0.04850522    -0.61597215    -0.00061389    -0.00053857    -0.00107225
H         0.84877514    -0.02798156     1.83521048     0.00161226     0.00049765     0.00136807
H        -0.90916593    -0.03141856     1.87951564     0.00074251    -0.00006394     0.00002536
H        -0.97255862     0.06133212    -0.61290280     0.00072779    -0.00022638    -0.00055396
     6
  Step:    23            Position(A)                                  Velocity(au)
C        -0.03743533     0.02559101    -0.02033545     0.00003121     0.00012818    -0.00032537
N        -0.05006488    -0.06666394     1.34204306    -0.00018889    -0.00008923     0.00028371
H         0.94510686    -0.05146525    -0.62174548    -0.00072317    -0.00062310    -0.00100040
H         0.85763297    -0.02521263     1.84282973     0.00158298     0.00061296     0.00139662
H        -0.90526295    -0.03175469     1.87981768     0.00067112    -0.00015013     0.00009276
H        -0.96862215     0.06010506    -0.61604164     0.00072207    -0.00012710    -0.00055432
     6
  Step:    24            Position(A)                                  Velocity(au)
C        -0.03723622     0.02629630    -0.02226376     0.00004122     0.00012926    -0.00039002
N        -0.05107173    -0.06716800     1.34367689    -0.00017540    -0.00009451     0.00032341
H         0.94076076    -0.05534348    -0.62695111    -0.00085898    -0.00075645    -0.00088536
H         0.86614758    -0.02125456     1.85053770     0.00148730     0.00078928     0.00138784
H        -0.90180074    -0.03306612     1.88053365     0.00058846    -0.00029492     0.00016154
H        -0.96463428     0.05993729    -0.61898615     0.00072944     0.00003527    -0.00051068
     6
  Step:    25            Position(A)                                  Velocity(au)
C        -0.03698251     0.02701090    -0.02461989     0.00005102     0.00013066    -0.00046806
N        -0.05199172    -0.06770213     1.34559574    -0.00015726    -0.00009965     0.00037617
H         0.93567079    -0.05977498    -0.63147123    -0.00098804    -0.00084684    -0.00075724
H         0.87397118    -0.01654230     1.85807538     0.00133822     0.00091334     0.00134053
H        -0.89879858    -0.03499443     1.88159227     0.00049682    -0.00039770     0.00022544
H        -0.96060912     0.06049253    -0.62165153     0.00073025     0.00015916    -0.00045872
     6
  Step:    26            Position(A)                                  Velocity(au)
C        -0.03667507     0.02773328    -0.02741144     0.00006053     0.00013162    -0.00054496
N        -0.05280124    -0.06826399     1.34781400    -0.00013517    -0.00010423     0.00042947
H         0.92989432    -0.06465706    -0.63527918    -0.00110409    -0.00092128    -0.00062653
H         0.88086531    -0.01120960     1.86528090     0.00115017     0.00101601     0.00126632
H        -0.89633672    -0.03744003     1.88301303     0.00039123    -0.00048519     0.00029288
H        -0.95660302     0.06168768    -0.62403114     0.00071971     0.00027061    -0.00040692
     6
  Step:    27            Position(A)                                  Velocity(au)
C        -0.03631581     0.02846049    -0.03062185     0.00006955     0.00013193    -0.00061716
N        -0.05348045    -0.06885010     1.35032575    -0.00010990    -0.00010807     0.00048036
H         0.92351083    -0.06992153    -0.63837152    -0.00120324    -0.00098412    -0.00049708
H         0.88663857    -0.00535248     1.87202201     0.00093161     0.00110194     0.00117023
H        -0.89448975    -0.04033811     1.88481787     0.00027377    -0.00056179     0.00036328
H        -0.95268263     0.06347294    -0.62613319     0.00069636     0.00037375    -0.00035748
     6
  Step:    28            Position(A)                                  Velocity(au)
C        -0.03590784     0.02918870    -0.03422001     0.00007781     0.00013145    -0.00068228
N        -0.05401371    -0.06945620     1.35311333    -0.00008229    -0.00011101     0.00052695
H         0.91662006    -0.07551391    -0.64076297    -0.00128187    -0.00103716    -0.00037214
H         0.89114287     0.00094709     1.87819095     0.00069068     0.00117287     0.00105675
H        -0.89331643    -0.04363776     1.88702077     0.00014802    -0.00062935     0.00043466
H        -0.94892073     0.06581096    -0.62797486     0.00065943     0.00047006    -0.00031180
     6
  Step:    29            Position(A)                                  Velocity(au)
C        -0.03545570     0.02991348    -0.03816372     0.00008506     0.00013009    -0.00073850
N        -0.05439004    -0.07007723     1.35615058    -0.00005323    -0.00011295     0.00056786
H         0.90934110    -0.08138617    -0.64248518    -0.00133666    -0.00108132    -0.00025485
H         0.89427328     0.00761230     1.88370323     0.00043555     0.00122952     0.00093027
H        -0.89285360    -0.04729492     1.88962259     0.00001846    -0.00068873     0.00050431
H        -0.94539338     0.06866898    -0.62957981     0.00060872     0.00056001    -0.00027092
     6
  Step:    30            Position(A)                                  Velocity(au)
C        -0.03496544     0.03062998    -0.04240193     0.00009103     0.00012781    -0.00078445
N        -0.05460347    -0.07070757     1.35940475    -0.00002369    -0.00011380     0.00060209
H         0.90181104    -0.08749397    -0.64358650    -0.00136481    -0.00111724    -0.00014819
H         0.89596835     0.01456904     1.88849747     0.00017438     0.00127241     0.00079520
H        -0.89311187    -0.05126827     1.89260812    -0.00010982    -0.00074035     0.00056921
H        -0.94217670     0.07201536    -0.63097640     0.00054470     0.00064359    -0.00023554
     6
  Step:    31            Position(A)                                  Velocity(au)
C        -0.03444459     0.03133312    -0.04687679     0.00009548     0.00012463    -0.00081924
N        -0.05465322    -0.07134121     1.36283816     0.00000536    -0.00011353     0.00062899
H         0.89418175    -0.09379568    -0.64413113    -0.00136449    -0.00114558    -0.00005482
H         0.89621022     0.02174530     1.89253580    -0.00008483     0.00130213     0.00065603
H        -0.89407336    -0.05551818     1.89594500    -0.00023162    -0.00078449     0.00062638
H        -0.93934327     0.07581757    -0.63219608     0.00046857     0.00072063    -0.00020610
     6
  Step:    32            Position(A)                                  Velocity(au)
C        -0.03390199     0.03201803    -0.05152620     0.00009824     0.00012063    -0.00084261
N        -0.05454374    -0.07197206     1.36641009     0.00003303    -0.00011221     0.00064836
H         0.88661399    -0.10025292    -0.64419711    -0.00133515    -0.00116731     0.00002304
H         0.89502355     0.02907151     1.89580407    -0.00033459     0.00131971     0.00051723
H        -0.89569152    -0.06000550     1.89958449    -0.00034209    -0.00082149     0.00067329
H        -0.93695802     0.08004139    -0.63327190     0.00038224     0.00079101    -0.00018273
     6
  Step:    33            Position(A)                                  Velocity(au)
C        -0.03334747     0.03268031    -0.05628715     0.00009919     0.00011597    -0.00085505
N        -0.05428439    -0.07259436     1.37007907     0.00005850    -0.00010995     0.00066053
H         0.87927075    -0.10683223    -0.64387385    -0.00127765    -0.00118385     0.00008385
H         0.89247347     0.03648383     1.89831223    -0.00056830     0.00132692     0.00038311
H        -0.89789389    -0.06469264     1.90346433    -0.00043728    -0.00085204     0.00070817
H        -0.93507438     0.08465167    -0.63423684     0.00028821     0.00085500    -0.00016527
     6
  Step:    34            Position(A)                                  Velocity(au)
C        -0.03279137     0.03331649    -0.06109965     0.00009836     0.00011088    -0.00085777
N        -0.05388873    -0.07320309     1.37380563     0.00008119    -0.00010697     0.00066635
H         0.87230893    -0.11350777    -0.64325823    -0.00119438    -0.00119722     0.00012696
H         0.88866065     0.04392817     1.90009352    -0.00078080     0.00132635     0.00025759
H        -0.90058746    -0.06954524     1.90751340    -0.00051449    -0.00087723     0.00073027
H        -0.93373113     0.08961424    -0.63512227     0.00018929     0.00091335    -0.00015328
     6
  Step:    35            Position(A)                                  Velocity(au)
C        -0.03224391     0.03392433    -0.06591082     0.00009585     0.00010562    -0.00085263
N        -0.05337350    -0.07379447     1.37755504     0.00010072    -0.00010353     0.00066707
H         0.86587059    -0.12026431    -0.64244948    -0.00108888    -0.00120989     0.00015259
H         0.88371342     0.05136468     1.90120221    -0.00096872     0.00132128     0.00014388
H        -0.90366611    -0.07453463     1.91165751    -0.00057250    -0.00089860     0.00073988
H        -0.93295070     0.09489890    -0.63595659     0.00008827     0.00096746    -0.00014616
     6
  Step:    36            Position(A)                                  Velocity(au)
C        -0.03171457     0.03450299    -0.07067820     0.00009184     0.00010044    -0.00084181
N        -0.05275727    -0.07436619     1.38129957     0.00011694    -0.00009994     0.00066420
H         0.86007637    -0.12709971    -0.64154403    -0.00096526    -0.00122450     0.00016179
H         0.87777804     0.05877155     1.90170985    -0.00113041     0.00131532     0.00004436
H        -0.90701891    -0.07964022     1.91582523    -0.00061140    -0.00091795     0.00073806
H        -0.93273949     0.10048270    -0.63676426    -0.00001239     0.00101913    -0.00014313
     6
  Step:    37            Position(A)                                  Velocity(au)
C        -0.03121180     0.03505309    -0.07537148     0.00008652     0.00009556    -0.00082740
N        -0.05205924    -0.07491761     1.38501965     0.00012989    -0.00009645     0.00065914
H         0.85502253    -0.13402592    -0.64063124    -0.00082752    -0.00124351     0.00015613
H         0.87100932     0.06614693     1.90170078    -0.00126544     0.00131195    -0.00003937
H        -0.91053739    -0.08485106     1.91995225    -0.00063222    -0.00093704     0.00072629
H        -0.93308998     0.10635244    -0.63756513    -0.00011078     0.00107034    -0.00014332
     6
  Step:    38            Position(A)                                  Velocity(au)
C        -0.03074276     0.03557634    -0.07997206     0.00008008     0.00009111    -0.00081110
N        -0.05129830    -0.07544960     1.38870342     0.00013964    -0.00009329     0.00065296
H         0.85078118    -0.14106763    -0.63979026    -0.00067919    -0.00126870     0.00013753
H         0.86356383     0.07350817     1.90126762    -0.00137382     0.00131407    -0.00010632
H        -0.91412035    -0.09016568     1.92398337    -0.00063632    -0.00095729     0.00070598
H        -0.93398380     0.11250539    -0.63837416    -0.00020544     0.00112275    -0.00014584
     6
  Step:    39            Position(A)                                  Velocity(au)
C        -0.03031342     0.03607519    -0.08447067     0.00007268     0.00008714    -0.00079398
N        -0.05049271    -0.07596422     1.39234479     0.00014628    -0.00009061     0.00064624
H         0.84740306    -0.14825872    -0.63908835    -0.00052328    -0.00130091     0.00010802
H         0.85559724     0.08088863     1.90050799    -0.00145525     0.00132371    -0.00015579
H        -0.91767584    -0.09559028     1.92787219    -0.00062510    -0.00097950     0.00067825
H        -0.93539463     0.11894786    -0.63920124    -0.00029520     0.00117743    -0.00014975
     6
  Step:    40            Position(A)                                  Velocity(au)
C        -0.02992878     0.03655230    -0.08886403     0.00006445     0.00008363    -0.00077652
N        -0.04966011    -0.07646434     1.39594082     0.00014982    -0.00008847     0.00063907
H         0.84492079    -0.15563693    -0.63858045    -0.00036251    -0.00134000     0.00006972
H         0.84726601     0.08833281     1.89952287    -0.00150876     0.00134209    -0.00018714
H        -0.92112098    -0.10113537     1.93157933    -0.00059974    -0.00100386     0.00064388
H        -0.93728984     0.12569180    -0.64005126    -0.00037893     0.00123470    -0.00015411
     6
  Step:    41            Position(A)                                  Velocity(au)
C        -0.02959298     0.03701012    -0.09315151     0.00005550     0.00008049    -0.00075877
N        -0.04881784    -0.07695328     1.39948903     0.00015025    -0.00008693     0.00063118
H         0.84335054    -0.16323878    -0.63830898    -0.00019972    -0.00138496     0.00002482
H         0.83873055     0.09589208     1.89841596    -0.00153287     0.00136973    -0.00019978
H        -0.92438042    -0.10681256     1.93507022    -0.00056129    -0.00103002     0.00060339
H        -0.93963081     0.13275082    -0.64092406    -0.00045539     0.00129419    -0.00015800
     6
  Step:    42            Position(A)                                  Velocity(au)
C        -0.02930933     0.03745060    -0.09733269     0.00004600     0.00007760    -0.00074053
N        -0.04798320    -0.07743453     1.40298546     0.00014753    -0.00008598     0.00062212
H         0.84269170    -0.17109463    -0.63830345    -0.00003816    -0.00143418    -0.00002431
H         0.83015749     0.10362047     1.89729312    -0.00152611     0.00140665    -0.00019332
H        -0.92738563    -0.11263157     1.93831382    -0.00051085    -0.00105728     0.00055729
H        -0.94237248     0.14013638    -0.64181470    -0.00052320     0.00135499    -0.00016056
     6
  Step:    43            Position(A)                                  Velocity(au)
C        -0.02908019     0.03787506    -0.10140615     0.00003614     0.00007484    -0.00072159
N        -0.04717337    -0.07791165     1.40642369     0.00014170    -0.00008562     0.00061140
H         0.84292517    -0.17922547    -0.63858000     0.00011850    -0.00148568    -0.00007523
H         0.82171922     0.11157180     1.89626108    -0.00148758     0.00145261    -0.00016773
H        -0.93007485    -0.11859794     1.94128222    -0.00044972    -0.00108482     0.00050619
H        -0.94546284     0.14785479    -0.64271376    -0.00058097     0.00141599    -0.00016103
     6
  Step:    44            Position(A)                                  Velocity(au)
C        -0.02890682     0.03828406    -0.10536915     0.00002614     0.00007208    -0.00070175
N        -0.04640510    -0.07838809     1.40979478     0.00013289    -0.00008584     0.00059865
H         0.84401151    -0.18764095    -0.63914129     0.00026635    -0.00153735    -0.00012546
H         0.81359001     0.11979837     1.89542511    -0.00141759     0.00150718    -0.00012360
H        -0.93239423    -0.12471345     1.94395136    -0.00037947    -0.00111193     0.00045093
H        -0.94884286     0.15590652    -0.64360815    -0.00062743     0.00147602    -0.00015883
     6