     6
  Step:   300            Position(A)                                  Velocity(au)
C        -0.03673914     0.01414397     0.03004208    -0.00000038     0.00000198    -0.00003437
N        -0.04220873    -0.05407812     1.28543744     0.00000519    -0.00001087     0.00004706
H         0.05108539     0.96484604    -0.49011426    -0.00153674    -0.00017640    -0.00027374
H        -0.29894490    -0.89798629     1.81522243    -0.00158743     0.00068984     0.00015657
H         0.16888151     0.73086633     1.92118973     0.00151091    -0.00059593     0.00013180
H        -0.10964153    -0.88455734    -0.57511931     0.00154570     0.00020993    -0.00025899
