    14
  Step:   600            Position(A)                                  Velocity(au)
C        -5.27111817    -0.31031777     0.81109166    -0.00061145    -0.00031356    -0.00011459
C        -4.41721574    -0.50797474    -0.21793478    -0.00004800    -0.00058389     0.00069959
H        -5.70052274     0.63087829     1.02670057    -0.00114571     0.00065094     0.00151543
H        -5.74767391    -1.05534990     1.38771752    -0.00021826    -0.00037696     0.00050847
H        -3.75910079    -1.34754656    -0.39527872     0.00112923     0.00064422    -0.00094000
C        -3.98424332     0.63633400    -0.97062293     0.00083236     0.00008142     0.00004286
C        -2.90940945     1.24461266    -0.38036867    -0.00062162     0.00122961    -0.00001421
H        -4.54448298     1.10642881    -1.77422375    -0.00010331    -0.00030098    -0.00059542
H        -2.47020670     2.18554106    -0.71044179     0.00173816     0.00005268    -0.00127772
C        -2.07697524     0.82735125     0.69644486    -0.00001114    -0.00030476    -0.00067223
H        -2.19265408     0.00194422     1.42105587    -0.00346991    -0.00065931     0.00041339
N        -0.88524350     1.15252754     0.33324299     0.00044044     0.00000920     0.00018644
H         0.03594426     0.71498853     0.66929819     0.00006311    -0.00060630    -0.00075922
H        -0.95165337     1.86749287    -0.50943496     0.00136578    -0.00082859    -0.00075761
