    14
  Step:     0            Position(A)                                  Velocity(au)
C        -6.02617656    -0.73904351    -0.14089294     0.00009532    -0.00011993     0.00008126
C        -4.68207779    -0.75277325     0.11702766    -0.00022092     0.00001258    -0.00011612
H        -6.62953893     0.13278570    -0.42773589     0.00068119    -0.00090188     0.00008095
H        -6.62971666    -1.60643283     0.16676382    -0.00074122    -0.00010148    -0.00061106
H        -4.28848649    -1.67995607     0.49335716     0.00109559     0.00003218     0.00041461
C        -3.89211751     0.41544683    -0.07606984     0.00031186     0.00004343     0.00010557
C        -2.53406716     0.47770580     0.19872957    -0.00020287     0.00041837     0.00001929
H        -4.42933933     1.25676959    -0.50662173    -0.00071412    -0.00031465     0.00005077
H        -1.98738017    -0.36686043     0.54933567    -0.00057750    -0.00017527    -0.00093490
C        -1.86709779     1.75248081     0.09005889     0.00006354    -0.00003546     0.00009657
H        -2.39283758     2.71474727    -0.06156738    -0.00014783     0.00062311    -0.00096141
N        -0.52741843     1.78904870     0.17391640     0.00003615    -0.00016116    -0.00003182
H         0.04060415     2.65443382    -0.05657106     0.00021581     0.00095822     0.00019389
H         0.09591654     0.92519926     0.18962389    -0.00087348    -0.00168167    -0.00001371
    14
  Step:     1            Position(A)                                  Velocity(au)
C        -6.02535977    -0.74039240    -0.13993862     0.00005359    -0.00012953     0.00009343
C        -4.68444631    -0.75257388     0.11574287    -0.00020797     0.00002144    -0.00011692
H        -6.62142865     0.12283438    -0.42705184     0.00078089    -0.00088478     0.00003454
H        -6.63764128    -1.60739787     0.15952565    -0.00069779    -0.00007137    -0.00071114
H        -4.27570476    -1.67993611     0.49818575     0.00122150    -0.00000600     0.00045650
C        -3.88902865     0.41579204    -0.07498602     0.00024942     0.00002070     0.00009150
C        -2.53603592     0.48259183     0.19896664    -0.00015646     0.00047238     0.00002446
H        -4.43687582     1.25372213    -0.50601133    -0.00065406    -0.00024558     0.00006441
H        -1.99315674    -0.36966735     0.53919434    -0.00047616    -0.00033298    -0.00091805
C        -1.86651373     1.75196931     0.09111969     0.00004230    -0.00005403     0.00009659
H        -2.39419546     2.72072981    -0.07208924    -0.00008814     0.00044831    -0.00095488
N        -0.52666748     1.78732322     0.17354187     0.00010223    -0.00015421    -0.00003685
H         0.04146119     2.66331798    -0.05391601    -0.00006861     0.00063369     0.00029622
H         0.08451138     0.90851954     0.18951085    -0.00121050    -0.00134196    -0.00000830
    14
  Step:     2            Position(A)                                  Velocity(au)
C        -6.02500418    -0.74187713    -0.13884890     0.00001160    -0.00014468     0.00010596
C        -4.68662758    -0.75230426     0.11446981    -0.00018683     0.00002542    -0.00011395
H        -6.61245555     0.11342937    -0.42698022     0.00083701    -0.00080036    -0.00003148
H        -6.64498207    -1.60799417     0.15120616    -0.00063704    -0.00003688    -0.00080743
H        -4.26176378    -1.68008743     0.50334390     0.00130609     0.00000171     0.00047415
C        -3.88666088     0.41589970    -0.07406812     0.00018012     0.00000003     0.00007531
C        -2.53748994     0.48804002     0.19926472    -0.00010833     0.00052046     0.00003067
H        -4.44364823     1.25139696    -0.50521258    -0.00057554    -0.00018291     0.00008471
H        -1.99779709    -0.37414498     0.52925166    -0.00037422    -0.00047271    -0.00090181
C        -1.86617230     1.75129876     0.09217204     0.00002014    -0.00006515     0.00009518
H        -2.39476579     2.72455484    -0.08245714    -0.00000759     0.00023559    -0.00093428
N        -0.52518198     1.78567508     0.17311019     0.00016813    -0.00014712    -0.00004203
H         0.03910309     2.66829699    -0.05009070    -0.00036015     0.00026179     0.00040334
H         0.06943445     0.89584127     0.18944233    -0.00153235    -0.00096649    -0.00000495
    14
  Step:     3            Position(A)                                  Velocity(au)
C        -6.02510606    -0.74355755    -0.13762044    -0.00002951    -0.00016493     0.00011869
C        -4.68853360    -0.75201786     0.11325011    -0.00015804     0.00002470    -0.00010726
H        -6.60311736     0.10532503    -0.42774056     0.00084796    -0.00064859    -0.00011701
H        -6.65157774    -1.60820478     0.14186152    -0.00056447    -0.00000382    -0.00089731
H        -4.24713164    -1.67989864     0.50855870     0.00134782     0.00005447     0.00046724
C        -3.88508820     0.41579277    -0.07333856     0.00010438    -0.00001855     0.00005720
C        -2.53840575     0.49397800     0.19963762    -0.00005786     0.00056135     0.00003828
H        -4.44946681     1.24972070    -0.50415818    -0.00048138    -0.00012666     0.00011023
H        -2.00134360    -0.38000877     0.51946550    -0.00027969    -0.00057973    -0.00089183
C        -1.86607320     1.75054396     0.09320198    -0.00000110    -0.00007009     0.00009266
H        -2.39436154     2.72588390    -0.09252835     0.00008609    -0.00000054    -0.00090184
N        -0.52298922     1.78410477     0.17262242     0.00022938    -0.00014005    -0.00004688
H         0.03358232     2.66904515    -0.04509211    -0.00063528    -0.00012221     0.00050651
H         0.05098833     0.88737577     0.18940248    -0.00181494    -0.00058856    -0.00000242
    14
  Step:     4            Position(A)                                  Velocity(au)
C        -6.02564969    -0.74548521    -0.13625232    -0.00006879    -0.00018916     0.00013130
C        -4.69008500    -0.75176393     0.11212340    -0.00012257     0.00001985    -0.00009713
H        -6.59390486     0.09924030    -0.42954004     0.00081717    -0.00043678    -0.00021958
H        -6.65733101    -1.60807774     0.13157571    -0.00048609     0.00002192    -0.00097835
H        -4.23227756    -1.67889573     0.51356572     0.00134794     0.00014687     0.00043744
C        -3.88437741     0.41549386    -0.07281681     0.00002298    -0.00003515     0.00003750
C        -2.53875567     0.50032067     0.20010206    -0.00000484     0.00059410     0.00004744
H        -4.45417924     1.24862593    -0.50280104    -0.00037547    -0.00007587     0.00013882
H        -2.00391589    -0.38682765     0.50974112    -0.00019830    -0.00064285    -0.00089189
C        -1.86619646     1.74976549     0.09419913    -0.00001970    -0.00007017     0.00008934
H        -2.39288248     2.72454305    -0.10218670     0.00018485    -0.00024486    -0.00086019
N        -0.52016387     1.78261123     0.17208458     0.00028179    -0.00013314    -0.00005096
H         0.02520503     2.66562336    -0.03900987    -0.00087106    -0.00048252     0.00059744
H         0.02972925     0.88296550     0.18938945    -0.00203605    -0.00024244     0.00000060
    14
  Step:     5            Position(A)                                  Velocity(au)
C        -6.02661095    -0.74769587    -0.13474799    -0.00010569    -0.00021563     0.00014329
C        -4.69121502    -0.75158359     0.11112518    -0.00008166     0.00001175    -0.00008401
H        -6.58524027     0.09576952    -0.43254430     0.00075353    -0.00018035    -0.00033403
H        -6.66221198    -1.60772521     0.12045832    -0.00040805     0.00003471    -0.00104836
H        -4.21764286    -1.67668556     0.51812849     0.00130998     0.00027026     0.00038789
C        -3.88458544     0.41502389    -0.07251816    -0.00006311    -0.00004996     0.00001664
C        -2.53851158     0.50697503     0.20067556     0.00005065     0.00061824     0.00005816
H        -4.45768102     1.24806082    -0.50112130    -0.00026254    -0.00002886     0.00016778
H        -2.00568178    -0.39407241     0.49995369    -0.00013300    -0.00065561    -0.00090372
C        -1.86650423     1.74900881     0.09515658    -0.00003422    -0.00006686     0.00008555
H        -2.39031755     2.72052710    -0.11134657     0.00028063    -0.00048191    -0.00081226
N        -0.51682458     1.78119212     0.17150756     0.00032158    -0.00012651    -0.00005382
H         0.01452626     2.65848915    -0.03202207    -0.00104494    -0.00078228     0.00066822
H         0.00644583     0.88207200     0.18941560    -0.00217567     0.00003677     0.00000537
    14
  Step:     6            Position(A)                                  Velocity(au)
C        -6.02796184    -0.75020257    -0.13311750    -0.00014004    -0.00024204     0.00015399
C        -4.69187156    -0.75150692     0.11028547    -0.00003668     0.00000150    -0.00006845
H        -6.57742001     0.09529475    -0.43684757     0.00067031     0.00009831    -0.00045270
H        -6.66625784    -1.60731838     0.10864085    -0.00033626     0.00002958    -0.00110560
H        -4.20361913    -1.67298324     0.52205146     0.00123922     0.00041417     0.00032267
C        -3.88575815     0.41440087    -0.07245285    -0.00015290    -0.00006334    -0.00000491
C        -2.53764762     0.51384588     0.20137445     0.00010829     0.00063381     0.00007025
H        -4.45992273     1.24799463    -0.49913052    -0.00014774     0.00001645     0.00019415
H        -2.00682554    -0.40117039     0.48997054    -0.00008405    -0.00061636    -0.00092723
C        -1.86694503     1.74830280     0.09607070    -0.00004359    -0.00006169     0.00008157
H        -2.38674320     2.71400040    -0.11995655     0.00036551    -0.00069628    -0.00076135
N        -0.51312864     1.77984354     0.17090723     0.00034562    -0.00012038    -0.00005501
H         0.00234503     2.64850953    -0.02439133    -0.00113562    -0.00098451     0.00071159
H        -0.01786779     0.88376984     0.18950689    -0.00221747     0.00021523     0.00001311
    14
  Step:     7            Position(A)                                  Velocity(au)
C        -6.02967463    -0.75299087    -0.13137918    -0.00017201    -0.00026583     0.00016260
C        -4.69201746    -0.75155086     0.10962781     0.00001105    -0.00000965    -0.00005105
H        -6.57057601     0.09792022    -0.44244805     0.00058295     0.00037264    -0.00056629
H        -6.66956840    -1.60707801     0.09627129    -0.00027602     0.00000268    -0.00114886
H        -4.19053254    -1.66762474     0.52518752     0.00114216     0.00056726     0.00024646
C        -3.88793037     0.41363828    -0.07262553    -0.00024531    -0.00007571    -0.00002660
C        -2.53614244     0.52084093     0.20221245     0.00016753     0.00064123     0.00008342
H        -4.46091315     1.24842075    -0.49687397    -0.00003641     0.00006226     0.00021491
H        -2.00752046    -0.40755647     0.47966876    -0.00004944    -0.00052780    -0.00096088
C        -1.86745781     1.74765920     0.09694106    -0.00004712    -0.00005619     0.00007768
H        -2.38232124     2.70529468    -0.12800254     0.00043194    -0.00087303    -0.00071093
N        -0.50926350     1.77855847     0.17030407     0.00035175    -0.00011514    -0.00005418
H        -0.01031769     2.63695112    -0.01645465    -0.00112543    -0.00105578     0.00072182
H        -0.04206553     0.88678050     0.18970237    -0.00215148     0.00026520     0.00002493
    14
  Step:     8            Position(A)                                  Velocity(au)
C        -6.03172488    -0.75601808    -0.12956021    -0.00020193    -0.00028461     0.00016838
C        -4.69162987    -0.75171800     0.10916874     0.00006023    -0.00002039    -0.00003246
H        -6.56466681     0.10344700    -0.44923628     0.00050618     0.00061606    -0.00066522
H        -6.67229621    -1.60725977     0.08350729    -0.00023142    -0.00004828    -0.00117765
H        -4.17863225    -1.66057325     0.52744317     0.00102620     0.00071787     0.00016431
C        -3.89112481     0.41274454    -0.07303486    -0.00033905    -0.00008750    -0.00004789
C        -2.53398259     0.52787409     0.20319941     0.00022732     0.00064104     0.00009726
H        -4.46071917     1.24935672    -0.49442902     0.00006630     0.00011066     0.00022739
H        -2.00790714    -0.41271697     0.46894946    -0.00002555    -0.00039613    -0.00100196
C        -1.86797582     1.74707359     0.09777003    -0.00004437    -0.00005164     0.00007411
H        -2.37729375     2.69490117    -0.13550960     0.00047295    -0.00099829    -0.00066458
N        -0.50543337     1.77732470     0.16972185     0.00033933    -0.00011133    -0.00005116
H        -0.02227601     2.62541240    -0.00860024    -0.00100435    -0.00097329     0.00069614
H        -0.06493549     0.88957168     0.19005223    -0.00197732     0.00017231     0.00004165
    14
  Step:     9            Position(A)                                  Velocity(au)
C        -6.03409216    -0.75921716    -0.12769561    -0.00023010    -0.00029650     0.00017071
C        -4.69069984    -0.75199703     0.10891760     0.00010954    -0.00002959    -0.00001336
H        -6.55950241     0.11139780    -0.45700107     0.00045132     0.00080616    -0.00074117
H        -6.67463113    -1.60813415     0.07050793    -0.00020494    -0.00012351    -0.00119226
H        -4.16808252    -1.65191991     0.52878209     0.00089933     0.00085442     0.00008160
C        -3.89534767     0.41172406    -0.07367324    -0.00043223    -0.00009891    -0.00006819
C        -2.53116934     0.53486492     0.20434022     0.00028585     0.00063356     0.00011127
H        -4.45946262     1.25084156    -0.49189927     0.00015564     0.00016337     0.00022967
H        -2.00807940    -0.41622265     0.45774894    -0.00000777    -0.00023007    -0.00104689
C        -1.86842842     1.74652957     0.09856237    -0.00003498    -0.00004877     0.00007105
H        -2.37197459     2.68345515    -0.14254154     0.00048272    -0.00106029    -0.00062563
N        -0.50183993     1.77612286     0.16918490     0.00030964    -0.00010962    -0.00004605
H        -0.03228979     2.61565845    -0.00122523    -0.00077484    -0.00073424     0.00063644
H        -0.08532315     0.89055019     0.19061356    -0.00170662    -0.00005662     0.00006361
    14
  Step:    10            Position(A)                                  Velocity(au)
C        -6.03675880    -0.76250463    -0.12582569    -0.00025664    -0.00030047     0.00016927
C        -4.68923344    -0.75236525     0.10887642     0.00015749    -0.00003636     0.00000560
H        -6.55479332     0.12108325    -0.46545076     0.00042475     0.00092767    -0.00078821
H        -6.67677977    -1.60996180     0.05742425    -0.00019703    -0.00022087    -0.00119385
H        -4.15895765    -1.64188114     0.52922826     0.00076990     0.00096573     0.00000393
C        -3.90058074     0.41058080    -0.07452674    -0.00052227    -0.00010975    -0.00008695
C        -2.52772899     0.54173451     0.20563356     0.00034041     0.00061872     0.00012483
H        -4.45731426     1.25293071    -0.48940458     0.00022754     0.00022154     0.00022077
H        -2.00807718    -0.41775009     0.44604669     0.00000891    -0.00003987    -0.00109154
C        -1.86874102     1.74600666     0.09932430    -0.00001857    -0.00004752     0.00006856
H        -2.36673332     2.67170521    -0.14919649     0.00045740    -0.00105106    -0.00059675
N        -0.49865944     1.77492660     0.16871435     0.00026603    -0.00011047    -0.00003935
H        -0.03922711     2.60934944     0.00532316    -0.00045535    -0.00036363     0.00055017
H        -0.10227116     0.88833297     0.19144376    -0.00136299    -0.00038916     0.00009044
    14
  Step:    11            Position(A)                                  Velocity(au)
C        -6.03970667    -0.76579056    -0.12399248    -0.00028136    -0.00029640     0.00016409
C        -4.68725446    -0.75279240     0.10904004     0.00020233    -0.00004019     0.00002377
H        -6.55021020     0.13169236    -0.47424470     0.00042760     0.00097373    -0.00080345
H        -6.67894145    -1.61296603     0.04439021    -0.00020581    -0.00033561    -0.00118431
H        -4.15123957    -1.63079271     0.52886798     0.00064630     0.00104137    -0.00006305
C        -3.90677338     0.40932305    -0.07557547    -0.00060606    -0.00011945    -0.00010366
C        -2.52372218     0.54840051     0.20707114     0.00038770     0.00059609     0.00013732
H        -4.45448481     1.25568812    -0.48706946     0.00027890     0.00028544     0.00020077
H        -2.00788456    -0.41709490     0.43386952     0.00002957     0.00016316    -0.00113160
C        -1.86883478     1.74548998     0.10006223     0.00000512    -0.00004701     0.00006660
H        -2.36196813     2.66046130    -0.15559652     0.00039604    -0.00096813    -0.00057940
N        -0.49602010     1.77370607     0.16832394     0.00021364    -0.00011391    -0.00003186
H        -0.04225146     2.60770339     0.01081077    -0.00008000     0.00008444     0.00044975
H        -0.11514125     0.88203663     0.19259201    -0.00097855    -0.00077000     0.00012100
    14
  Step:    12            Position(A)                                  Velocity(au)
C        -6.04291414    -0.76898885    -0.12223598    -0.00030387    -0.00028500     0.00015547
C        -4.68480713    -0.75324458     0.10939650     0.00024219    -0.00004088     0.00004057
H        -6.54543875     0.14238546    -0.48302773     0.00045669     0.00094513    -0.00078683
H        -6.68128218    -1.61730390     0.03151518    -0.00022721    -0.00046052    -0.00116606
H        -4.14481852    -1.61909910     0.52784885     0.00053664     0.00107216    -0.00011395
C        -3.91383954     0.40796757    -0.07679458    -0.00068058    -0.00012715    -0.00011795
C        -2.51924729     0.55477512     0.20863760     0.00042449     0.00056529     0.00014812
H        -4.45121277     1.25917528    -0.48501228     0.00030788     0.00035421     0.00017059
H        -2.00743039    -0.41418074     0.42129071     0.00005915     0.00036707    -0.00116319
C        -1.86862905     1.74497815     0.10078132     0.00003605    -0.00004575     0.00006498
H        -2.35806928     2.65052556    -0.16187187     0.00030148    -0.00081619    -0.00057323
N        -0.49398571     1.77243469     0.16801733     0.00015855    -0.00011931    -0.00002452
H        -0.04097722     2.61119679     0.01516237     0.00030699     0.00053581     0.00035017
H        -0.12367883     0.87148769     0.19409092    -0.00058790    -0.00113196     0.00015359
    14
  Step:    13            Position(A)                                  Velocity(au)
C        -6.04635449    -0.77202555    -0.12059136    -0.00032371    -0.00026768     0.00014394
C        -4.68195619    -0.75368665     0.10992751     0.00027527    -0.00003840     0.00005546
H        -6.54021928     0.15236879    -0.49145812     0.00050595     0.00084859    -0.00074075
H        -6.68391206    -1.62304083     0.01888052    -0.00025538    -0.00058646    -0.00114157
H        -4.13949950    -1.60733712     0.52637507     0.00044815     0.00105083    -0.00014415
C        -3.92166242     0.40654130    -0.07815587    -0.00074339    -0.00013191    -0.00012960
C        -2.51443558     0.56076721     0.21031155     0.00044822     0.00052623     0.00015677
H        -4.44774930     1.26343707    -0.48333755     0.00031404     0.00042563     0.00013183
H        -2.00659055    -0.40906457     0.40842244     0.00010225     0.00055964    -0.00118307
C        -1.86804605     1.74448906     0.10148381     0.00007362    -0.00004185     0.00006334
H        -2.35537277     2.64260559    -0.16813712     0.00018089    -0.00060789    -0.00057563
N        -0.49255141     1.77109593     0.16778758     0.00010667    -0.00012560    -0.00001818
H        -0.03553536     2.61942520     0.01847141     0.00066076     0.00091387     0.00026539
H        -0.12800264     0.85727275     0.19595201    -0.00022163    -0.00141156     0.00018623
    14
  Step:    14            Position(A)                                  Velocity(au)
C        -6.04999601    -0.77484487    -0.11908710    -0.00034048    -0.00024623     0.00013013
C        -4.67878514    -0.75408466     0.11060973     0.00030003    -0.00003301     0.00006808
H        -6.53437019     0.16095009    -0.49923305     0.00056781     0.00069495    -0.00066930
H        -6.68686912    -1.63013382     0.00654110    -0.00028345    -0.00070334    -0.00111319
H        -4.13501428    -1.59611021     0.52469535     0.00038647     0.00097315    -0.00015038
C        -3.93010267     0.40508188    -0.07962979    -0.00079285    -0.00013275    -0.00013857
C        -2.50944164     0.56628748     0.21206720     0.00045727     0.00047940     0.00016292
H        -4.44434253     1.26848681    -0.48212823     0.00029834     0.00049620     0.00008667
H        -2.00519340    -0.40193765     0.39540873     0.00016288     0.00072869    -0.00118886
C        -1.86701838     1.74406261     0.10216705     0.00011658    -0.00003330     0.00006119
H        -2.35411203     2.63722684    -0.17446480     0.00004539    -0.00036296    -0.00058165
N        -0.49165217     1.76968691     0.16761954     0.00006265    -0.00013159    -0.00001343
H        -0.02652179     2.63118950     0.02096817     0.00094541     0.00115840     0.00020518
H        -0.12852739     0.84060722     0.19816511     0.00009820    -0.00156271     0.00021710
    14
  Step:    15            Position(A)                                  Velocity(au)
C        -6.05380308    -0.77741224    -0.11774443    -0.00035387    -0.00022261     0.00011472
C        -4.67539243    -0.75440872     0.11141684     0.00031538    -0.00002523     0.00007827
H        -6.52779731     0.16757220    -0.50610034     0.00063427     0.00049735    -0.00057762
H        -6.69011312    -1.63842776    -0.00547261    -0.00030456    -0.00080136    -0.00108279
H        -4.13104478    -1.58604763     0.52308533     0.00035461     0.00083913    -0.00013138
C        -3.93900764     0.40363707    -0.08118742    -0.00082813    -0.00012882    -0.00014501
C        -2.50443193     0.57125492     0.21387579     0.00045102     0.00042579     0.00016639
H        -4.44122245     1.27429232    -0.48144150     0.00026300     0.00056129     0.00003769
H        -2.00302731    -0.39312301     0.38241390     0.00024423     0.00086268    -0.00117912
C        -1.86549558     1.74376050     0.10282239     0.00016320    -0.00001825     0.00005793
H        -2.35437980     2.63466507    -0.18086175    -0.00009130    -0.00010564    -0.00058463
N        -0.49118089     1.76821708     0.16749382     0.00002937    -0.00013635    -0.00001046
H        -0.01485270     2.64476741     0.02296005     0.00113980     0.00123705     0.00017373
H        -0.12585425     0.82308544     0.20070151     0.00035957    -0.00156360     0.00024483
    14
  Step:    16            Position(A)                                  Velocity(au)
C        -6.05773759    -0.77971490    -0.11657741    -0.00036369    -0.00019877     0.00009833
C        -4.67188562    -0.75463672     0.11232212     0.00032076    -0.00001599     0.00008614
H        -6.52049425     0.17183050    -0.51186957     0.00069749     0.00027016    -0.00047161
H        -6.69353194    -1.64766504    -0.01714698    -0.00031285    -0.00087216    -0.00105157
H        -4.12725659    -1.57775261     0.52182110     0.00035214     0.00065398    -0.00008857
C        -3.94821970     0.40226372    -0.08280216    -0.00084909    -0.00011935    -0.00014917
C        -2.49957477     0.57560247     0.21570719     0.00042972     0.00036690     0.00016709
H        -4.43858897     1.28076616    -0.48130372     0.00021109     0.00061569    -0.00001223
H        -1.99985038    -0.38306491     0.36961333     0.00034840     0.00095154    -0.00115336
C        -1.86344814     1.74366339     0.10343448     0.00021148     0.00000475     0.00005301
H        -2.35610942     2.63491575    -0.18725478    -0.00021490     0.00013919    -0.00057729
N        -0.49100961     1.76670407     0.16739073     0.00000791    -0.00013934    -0.00000918
H        -0.00158639     2.65825231     0.02476893     0.00123815     0.00114648     0.00017017
H        -0.12066117     0.80640043     0.20352118     0.00055932    -0.00141569     0.00026870
    14
  Step:    17            Position(A)                                  Velocity(au)
C        -6.06175946    -0.78176081    -0.11559326    -0.00036974    -0.00017651     0.00008157
C        -4.66837528    -0.75475853     0.11330131     0.00031617    -0.00000656     0.00009204
H        -6.51253829     0.17348250    -0.51641770     0.00075011     0.00002841    -0.00035758
H        -6.69695736    -1.65750785    -0.02847771    -0.00030422    -0.00090981    -0.00102007
H        -4.12334095    -1.57174053     0.52114778     0.00037466     0.00042866    -0.00002628
C        -3.95758307     0.40102609    -0.08445080    -0.00085610    -0.00010377    -0.00015139
C        -2.49503104     0.57928147     0.21753126     0.00039440     0.00030451     0.00016509
H        -4.43660455     1.28776181    -0.48170895     0.00014616     0.00065417    -0.00006021
H        -1.99540534    -0.37230634     0.35718197     0.00047585     0.00098795    -0.00111216
C        -1.86086902     1.74386435     0.10398208     0.00025941     0.00003638     0.00004596
H        -2.35908114     2.63771004    -0.19349109    -0.00031272     0.00034993    -0.00055304
N        -0.49100774     1.76516884     0.16729309    -0.00000206    -0.00014041    -0.00000928
H         0.01223427     2.66984880     0.02668280     0.00124683     0.00090572     0.00019014
H        -0.11361802     0.79211442     0.20657986     0.00070077    -0.00113781     0.00028862
    14
  Step:    18            Position(A)                                  Velocity(au)
C        -6.06582635    -0.78357635    -0.11479292    -0.00037179    -0.00015737     0.00006499
C        -4.66496880    -0.75478029     0.11433564     0.00030216     0.00000143     0.00009658
H        -6.50408409     0.17245206    -0.51969236     0.00078537    -0.00021261    -0.00024209
H        -6.70018736    -1.66756894    -0.03946305    -0.00027667    -0.00091134    -0.00098830
H        -4.11906008    -1.56837490     0.52124627     0.00041395     0.00017936     0.00004839
C        -3.96694853     0.39999347    -0.08611410    -0.00084992    -0.00008177    -0.00015203
C        -2.49094661     0.58226419     0.21931881     0.00034672     0.00024057     0.00016050
H        -4.43539153     1.29507746    -0.48262093     0.00007179     0.00067219    -0.00010372
H        -1.98944030    -0.36145151     0.34528262     0.00062491     0.00096866    -0.00105713
C        -1.85777299     1.74445937     0.10444003     0.00030510     0.00007644     0.00003656
H        -2.36295067     2.64257121    -0.19935349    -0.00037532     0.00051127    -0.00050715
N        -0.49105459     1.76363240     0.16718773    -0.00000176    -0.00013962    -0.00001040
H         0.02569037     2.67806673     0.02892857     0.00117976     0.00054680     0.00022766
H        -0.10533058     0.78150864     0.20983520     0.00079113    -0.00075895     0.00030496
    14
  Step:    19            Position(A)                                  Velocity(au)
C        -6.06989304    -0.78520360    -0.11417138    -0.00036954    -0.00014268     0.00004913
C        -4.66176498    -0.75472716     0.11541414     0.00027969     0.00000625     0.00010052
H        -6.49535678     0.16883133    -0.52171397     0.00079716    -0.00043751    -0.00013185
H        -6.70301008    -1.67744515    -0.05009864    -0.00023034    -0.00087676    -0.00095585
H        -4.11428501    -1.56781676     0.52220631     0.00045908    -0.00007426     0.00012644
C        -3.97617679     0.39923724    -0.08777669    -0.00083156    -0.00005331    -0.00015141
C        -2.48744590     0.58454436     0.22104252     0.00028887     0.00017694     0.00015352
H        -4.43503400     1.30246725    -0.48397811    -0.00000874     0.00066649    -0.00014078
H        -1.98173428    -0.35111506     0.33405521     0.00079134     0.00089560    -0.00099076
C        -1.85419441     1.74553670     0.10478200     0.00034689     0.00012376     0.00002484
H        -2.36729203     2.64889500    -0.20458602    -0.00039741     0.00061545    -0.00043746
N        -0.49104635     1.76211431     0.16706568     0.00000709    -0.00013712    -0.00001216
H         0.03804373     2.68181111     0.03166335     0.00105448     0.00010687     0.00027644
H        -0.09631055     0.77551087     0.21325137     0.00083969    -0.00031255     0.00031848
    14
  Step:    20            Position(A)                                  Velocity(au)
C        -6.07391071    -0.78669764    -0.11371800    -0.00036263    -0.00013348     0.00003450
C        -4.65884999    -0.75464355     0.11653473     0.00025002     0.00000626     0.00010466
H        -6.48664460     0.16288063    -0.52257686     0.00078014    -0.00063116    -0.00003356
H        -6.70522655    -1.68674974    -0.06037417    -0.00016729    -0.00080889    -0.00092213
H        -4.10901685    -1.56999955     0.52401233     0.00049819    -0.00031172     0.00019836
C        -3.98514049     0.39882716    -0.08942650    -0.00080216    -0.00001874    -0.00014980
C        -2.48462700     0.58613515     0.22267735     0.00022344     0.00011524     0.00014437
H        -4.43558268     1.30965831    -0.48570082    -0.00009269     0.00063555    -0.00017012
H        -1.97212834    -0.34185855     0.32360788     0.00096793     0.00077671    -0.00091621
C        -1.85018413     1.74716687     0.10498338     0.00038343     0.00017637     0.00001105
H        -2.37164471     2.65603534    -0.20892375    -0.00037771     0.00066196    -0.00034434
N        -0.49089945     1.76063264     0.16692181     0.00002259    -0.00013303    -0.00001424