    14
  Step:     0            Position(A)                                  Velocity(au)
C        -6.05574377    -0.74136669    -0.19361272     0.00038560     0.00015941     0.00002321
C        -4.71035844    -0.72544701     0.14941855    -0.00017421    -0.00008327     0.00003127
H        -6.59696277     0.09573229    -0.61570570    -0.00055599     0.00021839    -0.00032438
H        -6.58216474    -1.60679685     0.11931663     0.00054307     0.00068360     0.00014810
H        -4.27035927    -1.61851264     0.55213812     0.00051993    -0.00034242    -0.00056500
C        -3.87396688     0.41379401    -0.00309003    -0.00003910    -0.00009603     0.00008899
C        -2.53075449     0.45749115     0.25183097    -0.00001283     0.00018986    -0.00015303
H        -4.38444497     1.31300566    -0.43434766    -0.00067900     0.00026237    -0.00040703
H        -2.01688538    -0.54080619     0.51631115     0.00039707     0.00000063     0.00037731
C        -1.81207376     1.68678300     0.02185332    -0.00036920    -0.00016995     0.00009426
H        -2.49308908     2.50038752    -0.26343977     0.00013428    -0.00040768     0.00017999
N        -0.53605941     1.84681551     0.16124849     0.00020416    -0.00002192    -0.00013373
H        -0.14011141     2.77211033    -0.10960110    -0.00079657     0.00021582     0.00006849
H         0.16120810     1.05831223     0.31054073     0.00009932    -0.00032639     0.00137167
    14
  Step:     1            Position(A)                                  Velocity(au)
C        -6.05148698    -0.73959900    -0.19331193     0.00038902     0.00016599     0.00003012
C        -4.71221081    -0.72628256     0.14972783    -0.00016071    -0.00007007     0.00002602
H        -6.60299572     0.09829668    -0.61947538    -0.00052871     0.00023167    -0.00035405
H        -6.57740169    -1.60027556     0.12085279     0.00031814     0.00049377     0.00013724
H        -4.26441693    -1.62290851     0.54631474     0.00055660    -0.00044972    -0.00050390
C        -3.87496394     0.41277267    -0.00225483    -0.00014381    -0.00008932     0.00006303
C        -2.53032199     0.45953340     0.25022634     0.00009089     0.00018144    -0.00013967
H        -4.39120612     1.31532603    -0.43830442    -0.00054624     0.00014640    -0.00030722
H        -2.01308041    -0.53875679     0.52012881     0.00029414     0.00037828     0.00031732
C        -1.81667627     1.68467339     0.02288316    -0.00046486    -0.00021450     0.00009466
H        -2.49065914     2.49626223    -0.26142810     0.00029634    -0.00033151     0.00018176
N        -0.53330314     1.84665976     0.15979823     0.00029434    -0.00000859    -0.00013123
H        -0.14898907     2.77311012    -0.10836268    -0.00081273    -0.00002064     0.00015402
H         0.16055648     1.05640742     0.32526798    -0.00021864    -0.00001365     0.00131490
    14
  Step:     2            Position(A)                                  Velocity(au)
C        -6.04723321    -0.73773535    -0.19295388     0.00038432     0.00017590     0.00003398
C        -4.71387421    -0.72697988     0.14998781    -0.00013933    -0.00005818     0.00002243
H        -6.60852933     0.10080048    -0.62345133    -0.00046567     0.00020911    -0.00036268
H        -6.57520474    -1.59599462     0.12231911     0.00008172     0.00028548     0.00013145
H        -4.25818267    -1.62835117     0.54111428     0.00057161    -0.00052937    -0.00045282
C        -3.87711291     0.41183992    -0.00171119    -0.00024910    -0.00008066     0.00003607
C        -2.52876604     0.46146044     0.24877533     0.00019180     0.00016973    -0.00012520
H        -4.39639493     1.31620836    -0.44106875    -0.00039645     0.00000617    -0.00019288
H        -2.01045050    -0.53253066     0.52325320     0.00018765     0.00075441     0.00025281
C        -1.82224349     1.68209046     0.02392421    -0.00054398    -0.00025636     0.00009649
H        -2.48660600     2.49313500    -0.25946342     0.00042831    -0.00022476     0.00017095
N        -0.52962017     1.84662765     0.15837766     0.00037122     0.00000065    -0.00012842
H        -0.15789154     2.77165872    -0.10623158    -0.00079702    -0.00022008     0.00022852
H         0.15642493     1.05801352     0.33930662    -0.00052326     0.00030073     0.00124937
    14
  Step:     3            Position(A)                                  Velocity(au)
C        -6.04307920    -0.73575096    -0.19256855     0.00037020     0.00018685     0.00003550
C        -4.71525896    -0.72755534     0.15021856    -0.00010961    -0.00004781     0.00002076
H        -6.61318315     0.10287138    -0.62740980    -0.00037003     0.00015584    -0.00035216
H        -6.57561392    -1.59403019     0.12372857    -0.00015018     0.00008204     0.00012274
H        -4.25191178    -1.63448956     0.53640839     0.00056262    -0.00057442    -0.00041417
C        -3.88041338     0.41100814    -0.00146563    -0.00035378    -0.00007168     0.00000890
C        -2.52612609     0.46324654     0.24748728     0.00028841     0.00015666    -0.00011015
H        -4.39987920     1.31546096    -0.44252408    -0.00023957    -0.00014487    -0.00007177
H        -2.00897532    -0.52225273     0.52565961     0.00008856     0.00110902     0.00018853
C        -1.82857693     1.67906508     0.02499406    -0.00060416    -0.00029525     0.00009999
H        -2.48128908     2.49134508    -0.25768817     0.00052620    -0.00008815     0.00014723
N        -0.52518197     1.84667388     0.15698883     0.00043070     0.00000589    -0.00012556
H        -0.16642538     2.76829540    -0.10336331    -0.00074245    -0.00035969     0.00028620
H         0.14910914     1.06298647     0.35260031    -0.00078749     0.00058700     0.00118309
    14
  Step:     4            Position(A)                                  Velocity(au)
C        -6.03913437    -0.73364764    -0.19217735     0.00034574     0.00019648     0.00003545
C        -4.71627206    -0.72802581     0.15044200    -0.00007146    -0.00003891     0.00002109
H        -6.61662451     0.10420971    -0.63115558    -0.00024702     0.00007945    -0.00032559
H        -6.57849015    -1.59419979     0.12500428    -0.00036201    -0.00009448     0.00010350
H        -4.24587437    -1.64091760     0.53205347     0.00052930    -0.00058172    -0.00038842
C        -3.88485256     0.41027182    -0.00151642    -0.00045658    -0.00006394    -0.00001772
C        -2.52245654     0.46488767     0.24636552     0.00037923     0.00014419    -0.00009512
H        -4.40163598     1.31303913    -0.44263891    -0.00008556    -0.00029329     0.00004841
H        -2.00851301    -0.50826880     0.52737762     0.00000828     0.00142139     0.00012987
C        -1.83546058     1.67563133     0.02611159    -0.00064454    -0.00033073     0.00010512
H        -2.47509438     2.49120647    -0.25624254     0.00058935     0.00007407     0.00011146
N        -0.52019779     1.84675661     0.15563072     0.00047003     0.00000776    -0.00012300
H        -0.17413408     2.76378978    -0.09997043    -0.00064497    -0.00042162     0.00032280
H         0.13919702     1.07085535     0.36518889    -0.00098534     0.00081544     0.00112559
    14
  Step:     5            Position(A)                                  Velocity(au)
C        -6.03551556    -0.73145258    -0.19179297     0.00031062     0.00020267     0.00003462
C        -4.71682228    -0.72840661     0.15067989    -0.00002545    -0.00003141     0.00002331
H        -6.61858723     0.10460941    -0.63453271    -0.00010330    -0.00001100    -0.00028687
H        -6.58353367    -1.59609709     0.12599287    -0.00054094    -0.00022667     0.00006795
H        -4.24033233    -1.64721580     0.52791089     0.00047338    -0.00055182    -0.00037440
C        -3.89040192     0.40960943    -0.00185332    -0.00055549    -0.00005866    -0.00004297
C        -2.51782980     0.46640086     0.24540639     0.00046203     0.00013400    -0.00008082
H        -4.40175097     1.30904465    -0.44146491     0.00005571    -0.00042570     0.00016023
H        -2.00879417    -0.49115718     0.52850067    -0.00004117     0.00166956     0.00008326
C        -1.84267756     1.67182969     0.02729370    -0.00066560    -0.00036184     0.00011153
H        -2.46839587     2.49296556    -0.25524978     0.00062064     0.00025364     0.00006593
N        -0.51489907     1.84684371     0.15429797     0.00048792     0.00000743    -0.00012120
H        -0.18053538     2.75907161    -0.09630150    -0.00050439    -0.00039620     0.00033642
H         0.12755288     1.08082577     0.37722480    -0.00109354     0.00095805     0.00108757
    14
  Step:     6            Position(A)                                  Velocity(au)
C        -6.03233891    -0.72921381    -0.19142004     0.00026541     0.00020382     0.00003369
C        -4.71682892    -0.72871289     0.15095198     0.00002691    -0.00002547     0.00002717
H        -6.61888441     0.10396911    -0.63743147     0.00005354    -0.00010576    -0.00024053
H        -6.59032415    -1.59915871     0.12649085    -0.00067828    -0.00030389     0.00001305
H        -4.23551821    -1.65298967     0.52386283     0.00039837    -0.00048842    -0.00036974
C        -3.89700497     0.40898862    -0.00245641    -0.00064724    -0.00005648    -0.00006589
C        -2.51234865     0.46781920     0.24459748     0.00053335     0.00012715    -0.00006811
H        -4.40041732     1.30372619    -0.43913347     0.00017454    -0.00052871     0.00025664
H        -2.00941370    -0.47174402     0.52919913    -0.00004738     0.00183083     0.00005623
C        -1.85002181     1.66771533     0.02855146    -0.00066852    -0.00038672     0.00011851
H        -2.46151672     2.49675537    -0.25480018     0.00062609     0.00043845     0.00001427
N        -0.50952351     1.84691908     0.15297923     0.00048450     0.00000655    -0.00012077
H        -0.18516859     2.75512214    -0.09261065    -0.00032503    -0.00028495     0.00032824
H         0.11527366     1.09181443     0.38898161    -0.00109477     0.00099235     0.00107968
    14
  Step:     7            Position(A)                                  Velocity(au)
C        -6.02970923    -0.72699373    -0.19105602     0.00021158     0.00019890     0.00003329
C        -4.71623354    -0.72896377     0.15127422     0.00008321    -0.00002157     0.00003224
H        -6.61741586     0.10229582    -0.63979487     0.00021536    -0.00019492    -0.00019157
H        -6.59837244    -1.60274532     0.12627826    -0.00077018    -0.00032274    -0.00006140
H        -4.23161720    -1.65790100     0.51982209     0.00030913    -0.00039769    -0.00037143
C        -3.90456152     0.40837381    -0.00329484    -0.00072760    -0.00005749    -0.00008552
C        -2.50616176     0.46918247     0.24391644     0.00058878     0.00012387    -0.00005785
H        -4.39793254     1.29747811    -0.43585051     0.00026181    -0.00058936     0.00033109
H        -2.00983079    -0.45110425     0.52973085     0.00000137     0.00188368     0.00005669
C        -1.85730264     1.66336945     0.02988635    -0.00065467    -0.00040266     0.00012512
H        -2.45469906     2.50255739    -0.25493765     0.00061372     0.00061371    -0.00003895
N        -0.50429981     1.84698693     0.15165580     0.00046123     0.00000694    -0.00012239
H        -0.18764597     2.75283767    -0.08912062    -0.00011578    -0.00010233     0.00030283
H         0.10360271     1.10253530     0.40084496    -0.00098229     0.00090722     0.00111034
    14
  Step:     8            Position(A)                                  Velocity(au)
C        -6.02771024    -0.72486256    -0.19069185     0.00015132     0.00018745     0.00003397
C        -4.71500851    -0.72918469     0.15165737     0.00014051    -0.00002022     0.00003803
H        -6.61417305     0.09970478    -0.64162244     0.00037378    -0.00026880    -0.00014526
H        -6.60717329    -1.60621935     0.12514766    -0.00081704    -0.00028607    -0.00015323
H        -4.22875548    -1.66168990     0.51573713     0.00021141    -0.00028741    -0.00037611
C        -3.91292258     0.40773084    -0.00432734    -0.00079256    -0.00006153    -0.00010101
C        -2.49946804     0.47052919     0.24333184     0.00062432     0.00012379    -0.00005073
H        -4.39468962     1.29083291    -0.43189034     0.00030956    -0.00059584     0.00037780
H        -2.00938376    -0.43053489     0.53043924     0.00011405     0.00181162     0.00009142
C        -1.86434402     1.65890630     0.03128864    -0.00062547    -0.00040672     0.00013034
H        -2.44809038     2.51018154    -0.25565229     0.00059203     0.00076400    -0.00008884
N        -0.49943328     1.84707094     0.15030165     0.00042101     0.00001007    -0.00012658
H        -0.18770158     2.75288354    -0.08598574     0.00011065     0.00012522     0.00026768
H         0.09378423     1.11166156     0.41327252    -0.00076455     0.00070913     0.00118269
    14
  Step:     9            Position(A)                                  Velocity(au)
C        -6.02639877    -0.72289294    -0.19031290     0.00008719     0.00016944     0.00003618
C        -4.71315967    -0.72940609     0.15210623     0.00019584    -0.00002174     0.00004398
H        -6.60923863     0.09641540    -0.64297279     0.00052070    -0.00031822    -0.00010695
H        -6.61624681    -1.60900356     0.12292596    -0.00082268    -0.00020131    -0.00025868
H        -4.22699211    -1.66418857     0.51159405     0.00011154    -0.00016637    -0.00038031
C        -3.92190019     0.40702771    -0.00550460    -0.00083929    -0.00006837    -0.00011180
C        -2.49250362     0.47189061     0.24280655     0.00063756     0.00012586    -0.00004702
H        -4.39116034     1.28444295    -0.42758547     0.00031206    -0.00053925     0.00039247
H        -2.00733582    -0.41147153     0.53173093     0.00029364     0.00160908     0.00016399
C        -1.87098600     1.65447168     0.03273770    -0.00058243    -0.00039634     0.00013326
H        -2.44174734     2.51927127    -0.25688122     0.00056841     0.00087546    -0.00013096
N        -0.49508949     1.84720728     0.14888672     0.00036812     0.00001650    -0.00013340
H        -0.18522528     2.75557716    -0.08326466     0.00033945     0.00036332     0.00023195
H         0.08687668     1.11804898     0.42671853    -0.00046727     0.00042580     0.00129170
    14
  Step:    10            Position(A)                                  Velocity(au)
C        -6.02580270    -0.72115578    -0.18990031     0.00002181     0.00014517     0.00004025
C        -4.71072419    -0.72966032     0.15261951     0.00024651    -0.00002618     0.00004955
H        -6.60278178     0.09274318    -0.64396220     0.00064869    -0.00033506    -0.00008163
H        -6.62517101    -1.61062331     0.11948847    -0.00079336    -0.00007894    -0.00037301
H        -4.22631532    -1.66532952     0.50741712     0.00001600    -0.00004394    -0.00038059
C        -3.93128368     0.40623515    -0.00677323    -0.00086646    -0.00007763    -0.00011773
C        -2.48552011     0.47328254     0.24230317     0.00062817     0.00012813    -0.00004643
H        -4.38786263     1.27903577    -0.42330435     0.00026715    -0.00041585     0.00037336
H        -2.00295980    -0.39533315     0.53402687     0.00053392     0.00128728     0.00027241
C        -1.87708584     1.65023552     0.03420404    -0.00052717    -0.00036980     0.00013321
H        -2.43565540     2.52933391    -0.25851738     0.00054806     0.00093793    -0.00016197
N        -0.49137995     1.84743191     0.14738329     0.00030789     0.00002559    -0.00014230
H        -0.18027536     2.76083180    -0.08091141     0.00055572     0.00057590     0.00020466
H         0.08356180     1.12097675     0.44153083    -0.00013088     0.00010391     0.00142303
    14
  Step:    11            Position(A)                                  Velocity(au)
C        -6.02592171    -0.71971699    -0.18943238    -0.00004239     0.00011524     0.00004635
C        -4.70776678    -0.72997884     0.15319018     0.00029020    -0.00003337     0.00005424
H        -6.59504737     0.08908524    -0.64475870     0.00075169    -0.00031296    -0.00007353
H        -6.63360308    -1.61073042     0.11476561    -0.00073689     0.00006899    -0.00049111
H        -4.22664204    -1.66514989     0.50326791    -0.00006880     0.00007027    -0.00037364
C        -3.94085558     0.40532946    -0.00808011    -0.00087404    -0.00008852    -0.00011904
C        -2.47876120     0.47469361     0.24179074     0.00059782     0.00012753    -0.00004806
H        -4.38531583     1.27534534    -0.41941753     0.00017726    -0.00022949     0.00032243
H        -1.99565527    -0.38330980     0.53769035     0.00081745     0.00087743     0.00040764
C        -1.88251887     1.64638155     0.03565201    -0.00046128    -0.00032635     0.00012977
H        -2.42975754     2.53979020    -0.26042469     0.00053350     0.00094616    -0.00018001
N        -0.48835378     1.84776717     0.14577368     0.00024591     0.00003572    -0.00015208
H        -0.17306778     2.76817616    -0.07878737     0.00074639     0.00073176     0.00019298
H         0.08401341     1.12032219     0.45785005     0.00019722    -0.00020018     0.00155498
    14
  Step:    12            Position(A)                                  Velocity(au)
C        -6.02673001    -0.71863469    -0.18888622    -0.00010325     0.00008050     0.00005451
C        -4.70437540    -0.73039032     0.15380604     0.00032503    -0.00004298     0.00005762
H        -6.58633704     0.08589659    -0.64557082     0.00082576    -0.00024821    -0.00008555
H        -6.64129199    -1.60911394     0.10874457    -0.00066209     0.00022968    -0.00060780
H        -4.22782045    -1.66379212     0.49924292    -0.00013685     0.00016684    -0.00035649
C        -3.95040496     0.40429854    -0.00937742    -0.00086313    -0.00009968    -0.00011643
C        -2.47244175     0.47607256     0.24125166     0.00054985     0.00012018    -0.00005048
H        -4.38398466     1.27401530    -0.41625056     0.00004994     0.00000679     0.00024609
H        -1.98507646    -0.37613778     0.54294486     0.00111675     0.00042790     0.00055405
C        -1.88717730     1.64309608     0.03704297    -0.00038628    -0.00026628     0.00012280
H        -2.42398412     2.55003290    -0.26245555     0.00052478     0.00090012    -0.00018479
N        -0.48600017     1.84821325     0.14405617     0.00018711     0.00004483    -0.00016122
H        -0.16394655     2.77684044    -0.07668958     0.00090169     0.00080936     0.00020116
H         0.08787627     1.11659741     0.47554891     0.00047305    -0.00043382     0.00166327
    14
  Step:    13            Position(A)                                  Velocity(au)
C        -6.02818045    -0.71795584    -0.18823981    -0.00015903     0.00004216     0.00006453
C        -4.70065612    -0.73091909     0.15445071     0.00034954    -0.00005461     0.00005936
H        -6.57698240     0.08365517    -0.64663034     0.00086963    -0.00014071    -0.00011865
H        -6.64808767    -1.60570577     0.10146885    -0.00057844     0.00038998    -0.00071810
H        -4.22963589    -1.66149999     0.49546912    -0.00018287     0.00023701    -0.00032656
C        -3.95973817     0.40314870    -0.01062730    -0.00083566    -0.00010915    -0.00011098
C        -2.46673228     0.47732287     0.24068631     0.00048868     0.00010223    -0.00005201
H        -4.38422319     1.27549392    -0.41403387    -0.00010274     0.00027110     0.00015476
H        -1.97122414    -0.37394877     0.54981125     0.00139918    -0.00000529     0.00069212
C        -1.89096951     1.64055609     0.03833850    -0.00030362    -0.00019101     0.00011247
H        -2.41827695     2.55948202    -0.26446734     0.00052010     0.00080450    -0.00017740
N        -0.48426037     1.84874783     0.14224674     0.00013505     0.00005117    -0.00016821
H        -0.15334156     2.78588254    -0.07438671     0.00101579     0.00079898     0.00023021
H         0.09436236     1.11083155     0.49423720     0.00066499    -0.00055991     0.00172695
    14
  Step:    14            Position(A)                                  Velocity(au)
C        -6.03020906    -0.71771238    -0.18747446    -0.00020844     0.00000178     0.00007598
C        -4.69672852    -0.73158497     0.15510464     0.00036276    -0.00006784     0.00005923
H        -6.56731220     0.08281837    -0.64816659     0.00088529     0.00000523    -0.00017124
H        -6.65394643    -1.60058233     0.09303473    -0.00049581     0.00053674    -0.00081738
H        -4.23182104    -1.65860712     0.49209890    -0.00020274     0.00027352    -0.00028197
C        -3.96868655     0.40191063    -0.01180541    -0.00079406    -0.00011461    -0.00010399
C        -2.46175103     0.47830908     0.24011378     0.00041902     0.00007095    -0.00005113
H        -4.38623222     1.27994619    -0.41286481    -0.00026596     0.00053549     0.00006145
H        -1.95446664    -0.37625347     0.55808641     0.00163381    -0.00037111     0.00080291
C        -1.89381958     1.63891742     0.03950354    -0.00021474    -0.00010294     0.00009922
H        -2.41260603     2.56763286    -0.26633654     0.00051643     0.00066781    -0.00016007
N        -0.48304566     1.84933279     0.14037624     0.00009162     0.00005374    -0.00017197
H        -0.14172417     2.79431970    -0.07165338     0.00108675     0.00070212     0.00027836
H         0.10242419     1.10434829     0.51332926     0.00075788    -0.00056271     0.00173276
    14
  Step:    15            Position(A)                                  Velocity(au)
C        -6.03274044    -0.71791683    -0.18657761    -0.00025066    -0.00003867     0.00008817
C        -4.69272013    -0.73240325     0.15574645     0.00036421    -0.00008230     0.00005712
H        -6.55761490     0.08376959    -0.65037646     0.00087799     0.00018040    -0.00023888
H        -6.65893445    -1.59396353     0.08358709    -0.00042427     0.00065705    -0.00090149
H        -4.23407127    -1.65551616     0.48930043    -0.00019401     0.00027154    -0.00022186
C        -3.97710974     0.40064137    -0.01290224    -0.00074094    -0.00011380    -0.00009675
C        -2.45756540     0.47887509     0.23956766     0.00034521     0.00002561    -0.00004686
H        -4.39004166     1.28720877    -0.41268962    -0.00042464     0.00077063    -0.00002056
H        -1.93548142    -0.38206753     0.56737648     0.00179756    -0.00063414     0.00087223
C        -1.89566729     1.63830417     0.04050906    -0.00012109    -0.00000538     0.00008368
H        -2.40697909     2.57409160    -0.26796926     0.00051019     0.00050123    -0.00013583
N        -0.48225594     1.84992358     0.13848464     0.00005718     0.00005230    -0.00017193
H        -0.12956683     2.80124278    -0.06829703     0.00111600     0.00052940     0.00034182
H         0.11094236     1.09852125     0.53214467     0.00075196    -0.00044649     0.00167651
    14
  Step:    16            Position(A)                                  Velocity(au)
C        -6.03569272    -0.71855826    -0.18554552    -0.00028529    -0.00007692     0.00010022
C        -4.68876084    -0.73338552     0.15635433     0.00035393    -0.00009772     0.00005308
H        -6.54810453     0.08676501    -0.65339259     0.00085556     0.00037125    -0.00031453
H        -6.66322808    -1.58620809     0.07331302    -0.00037370     0.00073868    -0.00096694
H        -4.23606538    -1.65266664     0.48724528    -0.00015627     0.00022957    -0.00014659
C        -3.98489608     0.39942100    -0.01392192    -0.00067880    -0.00010498    -0.00009035
C        -2.45419887     0.47886943     0.23908872     0.00027082    -0.00003226    -0.00003889
H        -4.39552208     1.29680528    -0.41331471    -0.00056581     0.00095113    -0.00008011
H        -1.91514158    -0.39012641     0.57716810     0.00187827    -0.00077888     0.00089288
C        -1.89646864     1.63879966     0.04133426    -0.00002419     0.00009764     0.00006669
H        -2.40144474     2.57859822    -0.26930814     0.00049766     0.00031756    -0.00010820
N        -0.48179473     1.85047698     0.13661494     0.00003094     0.00004718    -0.00016805
H        -0.11730953     2.80590134    -0.06417543     0.00110762     0.00029772     0.00041560
H         0.11887473     1.09458045     0.55000614     0.00065854    -0.00022976     0.00156187
    14
  Step:    17            Position(A)                                  Velocity(au)
C        -6.03898170    -0.71959964    -0.18438516    -0.00031226    -0.00011061     0.00011111
C        -4.68497734    -0.73454098     0.15690764     0.00033246    -0.00011395     0.00004727
H        -6.53889788     0.09189144    -0.65725750     0.00082716     0.00056134    -0.00038931
H        -6.66710990    -1.57780343     0.06243352    -0.00035322     0.00077090    -0.00101119
H        -4.23749004    -1.65049382     0.48609349    -0.00009152     0.00015027    -0.00005800
C        -3.99195986     0.39834465    -0.01487877    -0.00060986    -0.00008727    -0.00008552
C        -2.45164068     0.47816937     0.23871689     0.00019859    -0.00009925    -0.00002760
H        -4.40241985     1.30801663    -0.41444208    -0.00068022     0.00105943    -0.00010982
H        -1.89439072    -0.39910710     0.58690996     0.00187417    -0.00080779     0.00086450
C        -1.89619639     1.64044014     0.04196805     0.00007442     0.00020167     0.00004916
H        -2.39609181     2.58103888    -0.27033638     0.00047530     0.00013036    -0.00008097
N        -0.48157908     1.85095571     0.13480822     0.00001142     0.00003899    -0.00016065
H        -0.10533551     2.80775589    -0.05920492     0.00106762     0.00002769     0.00049426
H         0.12534912     1.09349484     0.56631357     0.00049517     0.00006125     0.00139802
    14
  Step:    18            Position(A)                                  Velocity(au)
C        -6.04252394    -0.72097802    -0.18311477    -0.00033174    -0.00013754     0.00011989
C        -4.68148774    -0.73587839     0.15738846     0.00030082    -0.00013104     0.00004001
H        -6.53000888     0.09904545    -0.66190959     0.00080160     0.00073356    -0.00045379
H        -6.67095544    -1.56934324     0.05119131    -0.00037004     0.00074586    -0.00103303
H        -4.23806754    -1.64937930     0.48597634    -0.00000424     0.00004083     0.00004048
C        -3.99823797     0.39751178    -0.01579289    -0.00053601    -0.00006079    -0.00008258
C        -2.44985443     0.47669823     0.23848492     0.00013054    -0.00017077    -0.00001381
H        -4.41040321     1.31998245    -0.41571732    -0.00076285     0.00108761    -0.00010680
H        -1.87414041    -0.40779831     0.59608070     0.00179114    -0.00073545     0.00079177
C        -1.89484053     1.64321148     0.04240974     0.00017316     0.00030211     0.00003204
H        -2.39104665     2.58145020    -0.27107959     0.00043985    -0.00004672    -0.00005803
N        -0.48154480     1.85132997     0.13310034    -0.00000318     0.00002840    -0.00015031
H        -0.09395330     2.80650717    -0.05336263     0.00100340    -0.00025815     0.00057230
H         0.12970761     1.09592047     0.58059060     0.00028200     0.00039757     0.00119740
    14
  Step:    19            Position(A)                                  Velocity(au)
C        -6.04623916    -0.72260867    -0.18176244    -0.00034412    -0.00015609     0.00012578
C        -4.67839643    -0.73740773     0.15778301     0.00026044    -0.00014915     0.00003173
H        -6.52136139     0.10793956    -0.66718498     0.00078586     0.00087257    -0.00049941
H        -6.67520518    -1.56148624     0.03983399    -0.00042816     0.00066031    -0.00103292
H        -4.23758288    -1.64960066     0.48697901     0.00009882    -0.00008737     0.00014400
C        -4.00368619     0.39701474    -0.01668548    -0.00045886    -0.00002663    -0.00008147
C        -2.44878493     0.47443335     0.23841471     0.00006816    -0.00024191     0.00000142
H        -4.41910872     1.33181009    -0.41677844    -0.00081246     0.00103674    -0.00007206
H        -1.85520616    -0.41519640     0.60423145     0.00163933    -0.00058248     0.00068222
C        -1.89240817     1.64704940     0.04266902     0.00027049     0.00039456     0.00001624
H        -2.38646925     2.58001673    -0.27160586     0.00038849    -0.00020066    -0.00004315
N        -0.48164856     1.85157704     0.13151997    -0.00001479     0.00001604    -0.00013772
H        -0.08338412     2.80210846    -0.04668478     0.00092336    -0.00053669     0.00064452
H         0.13151838     1.10219236     0.59250896     0.00003973     0.00075015     0.00097422
    14
  Step:    20            Position(A)                                  Velocity(au)
C        -6.05005225    -0.72439286    -0.18036315    -0.00034999    -0.00016548     0.00012835
C        -4.67579011    -0.73914123     0.15808264     0.00021307    -0.00016846     0.00002291
H        -6.51281676     0.11813454    -0.67283512     0.00078406     0.00096681    -0.00051975
H        -6.68032232    -1.55489769     0.02859425    -0.00052695     0.00051723    -0.00101321
H        -4.23590559    -1.65129074     0.48912663     0.00020938    -0.00022008     0.00024672
C        -4.00827645     0.39692928    -0.01757531    -0.00037980     0.00001338    -0.00008185
C        -2.44836330     0.47140607     0.23851608     0.00001252    -0.00030796     0.00001703
H        -4.42817733     1.34266316    -0.41729371    -0.00083059     0.00091489    -0.00000954
H        -1.83827692    -0.42054128     0.61100556     0.00143079    -0.00037122     0.00054452
C        -1.88892300     1.65184329     0.04276506     0.00036493     0.00047511     0.00000255
H        -2.38254763     2.57706044    -0.27202356     0.00031907    -0.00031984    -0.00003977
N        -0.48186825     1.85168080     0.13008734    -0.00002532     0.00000250    -0.00012374