     6
  Step:   120            Position(A)                                  Velocity(au)
C        -0.06053121    -0.06894716    -0.02884646    -0.00010073    -0.00006235    -0.00000223
N        -0.04936829    -0.00674787     1.34554078    -0.00001391     0.00001622    -0.00009893
H         0.91201295    -0.06266806    -0.63172523     0.00010392    -0.00079284     0.00028019
H         0.84975480     0.11580250     1.87971701    -0.00065159     0.00120856    -0.00002463
H        -0.82269456    -0.51411728     1.83073467     0.00084192    -0.00107857     0.00025908
H        -0.74467141     0.70654840    -0.54106509     0.00109938     0.00118047     0.00088674
