     6
  Step:   600            Position(A)                                  Velocity(au)
C         0.12679295     0.00573231    -0.10900258     0.00049157    -0.00008844    -0.00116028
N        -0.15850581    -0.12857024     1.46526908    -0.00015815     0.00027676     0.00066779
H        -0.29592335     0.76927422    -0.63184791    -0.00198842     0.00145020    -0.00522242
H        -1.06557410     0.54383701     1.61133145    -0.00286121    -0.00100932     0.00464848
H         0.67412715     0.24104201     1.89692980     0.00150571    -0.00318132     0.00344980
H         0.16664444    -0.50562692    -1.04711220    -0.00031596    -0.00005169     0.00167034
