|===============================================================================
|
|  DFTB+ release 20.1
|
|  Copyright (C) 2006 - 2020  DFTB+ developers group
|
|===============================================================================
|
|  When publishing results obtained with DFTB+, please cite the following
|  reference:
|
|  * DFTB+, a software package for efficient approximate density functional
|    theory based atomistic simulations, J. Chem. Phys. 152, 124101 (2020).
|    [doi: 10.1063/1.5143190]
|
|  You should also cite additional publications crediting the parametrization
|  data you use. Please consult the documentation of the SK-files for the
|  references.
|
|===============================================================================

Reading input file 'dftb_in.hsd'
Parser version: 8

--------------------------------------------------------------------------------
Reading SK-files:
Done.


Processed input in HSD format written to 'dftb_pin.hsd'

Starting initialization...
--------------------------------------------------------------------------------
OpenMP threads:              1
Chosen random seed:          498622978
Mode:                        Static calculation
Self consistent charges:     Yes
SCC-tolerance:                 0.100000E-05
Max. scc iterations:                   1000
Shell resolved Hubbard:      No
Spin polarisation:           No
Nr. of up electrons:            16.000000
Nr. of down electrons:          16.000000
Periodic boundaries:         No
Electronic solver:           Relatively robust
Maximal SCC-cycles:                    1000
Initial charges:             Set automatically (system chrg:   0.100E+01)
Included shells:             C:  s, p
                             H:  s
                             N:  s, p
Spin coupling constants:     C   1(s)-1(s):  -0.455900E-01
                             C   1(s)-2(p):  -0.293000E-01
                             C   2(p)-1(s):  -0.293000E-01
                             C   2(p)-2(p):  -0.275500E-01
                             H   1(s)-1(s):  -0.792500E-01
                             N   1(s)-1(s):  -0.468700E-01
                             N   1(s)-2(p):  -0.317000E-01
                             N   2(p)-1(s):  -0.317000E-01
                             N   2(p)-2(p):  -0.307200E-01
Range separated hybrid:      Yes
  Screening parameter omega:   0.300000E+00
  Range separated algorithm:   MatrixBased
Extra options:
                             Mulliken analysis
                             Force calculation
Force type                   original
                             Eigenvector printing


REKS Calcuation:             Yes
SSR(2,2) Calcuation:         Yes
Energy Functional:           (PPS+OSS)/2
Number of Core Orbitals:                 15
Number of Active Orbitals:                2
Number of Basis:                         32
Number of States:                         2
State-Averaging Weight:          0.500000
                                 0.500000
State of Interest:                        1
Initial Guess:               Diagonalize H0 matrix
Newton-Raphson for FON opt:  Yes
NR max. Iterations:                      50
Level Shifting:              Yes
Shift Value:                     0.300000
W Scale Factor:              C  =    3.200000
                             H  =    3.200000
                             N  =    3.200000
Transition Dipole:           No
Gradient of Microstate:      No
CP-REKS Solver:              Preconditioned Conjugate-Gradient
CG max. Iterations:                     100
CG Tolerance:                  0.100000E-07
Memory for A and Hxc:        Direct Updating Without Saving
Non-Adiabatic Coupling:      Yes

--------------------------------------------------------------------------------

***  Geometry step: 0

  iSCC       reks energy        Diff energy         x_a       SCC error   
    1      -16.4064767419       0.0000000000     1.000000    1.17337738
    2      -16.4177365460      -0.0112598041     1.000000    0.02741039
    3      -16.4206988902      -0.0029623442     1.000000    0.01238082
    4      -16.4219336150      -0.0012347248     1.000000    0.00809673
    5      -16.4225871982      -0.0006535832     1.000000    0.00601401
    6      -16.4229803071      -0.0003931090     1.000000    0.00483995
    7      -16.4232350829      -0.0002547758     1.000000    0.00394176
    8      -16.4234082023      -0.0001731194     1.000000    0.00321650
    9      -16.4235297036      -0.0001215013     1.000000    0.00263045
   10      -16.4236170351      -0.0000873315     1.000000    0.00215535
   11      -16.4236809994      -0.0000639643     1.000000    0.00180294
   12      -16.4237285912      -0.0000475918     1.000000    0.00154532
   13      -16.4237644885      -0.0000358973     1.000000    0.00133195
   14      -16.4237918960      -0.0000274075     1.000000    0.00115382
   15      -16.4238130517      -0.0000211557     1.000000    0.00100403
   16      -16.4238295434      -0.0000164917     1.000000    0.00087722
   17      -16.4238425137      -0.0000129703     1.000000    0.00076918
   18      -16.4238527955      -0.0000102818     1.000000    0.00067663
   19      -16.4238610035      -0.0000082080     1.000000    0.00061029
   20      -16.4238675964      -0.0000065929     1.000000    0.00055765
   21      -16.4238729208      -0.0000053243     1.000000    0.00051084
   22      -16.4238772408      -0.0000043200     1.000000    0.00046885
   23      -16.4238807602      -0.0000035194     1.000000    0.00043093
   24      -16.4238836374      -0.0000028772     1.000000    0.00039649
   25      -16.4238859966      -0.0000023592     1.000000    0.00036507
   26      -16.4238879361      -0.0000019395     1.000000    0.00033633
   27      -16.4238895342      -0.0000015980     1.000000    0.00030995
   28      -16.4238908534      -0.0000013192     1.000000    0.00028571
   29      -16.4238919441      -0.0000010908     1.000000    0.00026339
   30      -16.4238928473      -0.0000009032     1.000000    0.00024282
   31      -16.4238935961      -0.0000007488     1.000000    0.00022385
   32      -16.4238942176      -0.0000006215     1.000000    0.00020635
   33      -16.4238947339      -0.0000005163     1.000000    0.00019019
   34      -16.4238951631      -0.0000004292     1.000000    0.00017528
   35      -16.4238955202      -0.0000003571     1.000000    0.00016151
   36      -16.4238958176      -0.0000002973     1.000000    0.00014880
   37      -16.4238960652      -0.0000002477     1.000000    0.00013707
   38      -16.4238962717      -0.0000002064     1.000000    0.00012624
   39      -16.4238964438      -0.0000001721     1.000000    0.00011624
   40      -16.4238965874      -0.0000001436     1.000000    0.00010702
   41      -16.4238967073      -0.0000001199     1.000000    0.00009851
   42      -16.4238968074      -0.0000001001     1.000000    0.00009067
   43      -16.4238968909      -0.0000000836     1.000000    0.00008343
   44      -16.4238969607      -0.0000000698     1.000000    0.00007676
   45      -16.4238970190      -0.0000000583     1.000000    0.00007062
   46      -16.4238970678      -0.0000000488     1.000000    0.00006495
   47      -16.4238971086      -0.0000000408     1.000000    0.00005973
   48      -16.4238971427      -0.0000000341     1.000000    0.00005493
   49      -16.4238971712      -0.0000000285     1.000000    0.00005050
   50      -16.4238971950      -0.0000000239     1.000000    0.00004643
   51      -16.4238972150      -0.0000000200     1.000000    0.00004267
   52      -16.4238972317      -0.0000000167     1.000000    0.00003922
   53      -16.4238972457      -0.0000000140     1.000000    0.00003604
   54      -16.4238972574      -0.0000000117     1.000000    0.00003312
   55      -16.4238972672      -0.0000000098     1.000000    0.00003043
   56      -16.4238972754      -0.0000000082     1.000000    0.00002796
   57      -16.4238972822      -0.0000000069     1.000000    0.00002568
   58      -16.4238972880      -0.0000000058     1.000000    0.00002359
   59      -16.4238972928      -0.0000000048     1.000000    0.00002167
   60      -16.4238972969      -0.0000000040     1.000000    0.00001990
   61      -16.4238973002      -0.0000000034     1.000000    0.00001827
   62      -16.4238973031      -0.0000000028     1.000000    0.00001678
   63      -16.4238973055      -0.0000000024     1.000000    0.00001541
   64      -16.4238973075      -0.0000000020     1.000000    0.00001415
   65      -16.4238973091      -0.0000000017     1.000000    0.00001299
   66      -16.4238973105      -0.0000000014     1.000000    0.00001192
   67      -16.4238973117      -0.0000000012     1.000000    0.00001094
   68      -16.4238973127      -0.0000000010     1.000000    0.00001004
   69      -16.4238973135      -0.0000000008     1.000000    0.00000922
   70      -16.4238973142      -0.0000000007     1.000000    0.00000846
   71      -16.4238973148      -0.0000000006     1.000000    0.00000777
   72      -16.4238973153      -0.0000000005     1.000000    0.00000713
   73      -16.4238973157      -0.0000000004     1.000000    0.00000654
   74      -16.4238973160      -0.0000000003     1.000000    0.00000600
   75      -16.4238973163      -0.0000000003     1.000000    0.00000551
   76      -16.4238973166      -0.0000000002     1.000000    0.00000505
   77      -16.4238973168      -0.0000000002     1.000000    0.00000464
   78      -16.4238973169      -0.0000000002     1.000000    0.00000425
   79      -16.4238973171      -0.0000000001     1.000000    0.00000390
   80      -16.4238973172      -0.0000000001     1.000000    0.00000358
   81      -16.4238973173      -0.0000000001     1.000000    0.00000328
   82      -16.4238973174      -0.0000000001     1.000000    0.00000301
   83      -16.4238973174      -0.0000000001     1.000000    0.00000276
   84      -16.4238973175      -0.0000000001     1.000000    0.00000253
   85      -16.4238973175      -0.0000000000     1.000000    0.00000232
   86      -16.4238973176      -0.0000000000     1.000000    0.00000213
   87      -16.4238973176      -0.0000000000     1.000000    0.00000196
   88      -16.4238973177      -0.0000000000     1.000000    0.00000179
   89      -16.4238973177      -0.0000000000     1.000000    0.00000165
   90      -16.4238973177      -0.0000000000     1.000000    0.00000151
   91      -16.4238973177      -0.0000000000     1.000000    0.00000138
   92      -16.4238973177      -0.0000000000     1.000000    0.00000127
   93      -16.4238973177      -0.0000000000     1.000000    0.00000116
   94      -16.4238973178      -0.0000000000     1.000000    0.00000107
   95      -16.4238973178      -0.0000000000     1.000000    0.00000098
  
--------------------------------------------------
 Final SA-REKS(2,2) energy:     -16.42389732
  
 State     Energy      FON(1)    FON(2)   Spin
  PPS  -16.49194041   2.000000  0.000000  0.00
  OSS  -16.35585423   1.000000  1.000000  0.00
 Trip  -16.36508669   1.000000  1.000000  1.00
--------------------------------------------------

 Lagrangian Wab:  -0.00180594 -0.00180591

--------------------------------------------------
 SSR: 2SI-2SA-REKS(2,2) Hamiltonian matrix
               PPS           OSS
   PPS   -16.49194041   -0.00255398
   OSS    -0.00255398  -16.35585423
--------------------------------------------------

----------------------------------------------------------------
 SSR: 2SI-2SA-REKS(2,2) states
                    E_n       C_{PPS}    C_{OSS}
 SSR state  1  -16.49198832  -0.999824  -0.018757
 SSR state  2  -16.35580631   0.018757  -0.999824
----------------------------------------------------------------

 unrelaxed SSR FONs for S0:  1.999648  0.000352

Total Energy:                      -16.4919883231 H         -448.7698 eV
Extrapolated to 0:                 -16.4919883231 H         -448.7698 eV

----------------------------------------------------------------------------------
 Solving CP-REKS equation for  1 state vector...
----------------------------------------------------------------------------------
  CG solver: Constructing Y initial guess
  CG solver: Iteration    1    eps =    0.000228755227
  CG solver: Iteration    2    eps =    0.000015507492
  CG solver: Iteration    3    eps =    0.000004130293
  CG solver: Iteration    4    eps =    0.000000300409
  CG solver: Iteration    5    eps =    0.000000264621
  CG solver: Iteration    6    eps =    0.000000063729
  CG solver: Iteration    7    eps =    0.000000005324
  Convergence reached in CG solver after    7 iterations
  CG solver: Calculating converged R, Z, Q2 matrix
----------------------------------------------------------------------------------

----------------------------------------------------------------------------------
 Solving CP-REKS equation for SI between  1 and  2 state vectors...
----------------------------------------------------------------------------------
  CG solver: Constructing Y initial guess
  CG solver: Iteration    1    eps =    0.002540127883
  CG solver: Iteration    2    eps =    0.000890224627
  CG solver: Iteration    3    eps =    0.000013418195
  CG solver: Iteration    4    eps =    0.000014602904
  CG solver: Iteration    5    eps =    0.000009474821
  CG solver: Iteration    6    eps =    0.000001951353
  CG solver: Iteration    7    eps =    0.000000358465
  CG solver: Iteration    8    eps =    0.000000025617
  CG solver: Iteration    9    eps =    0.000000002403
  Convergence reached in CG solver after    9 iterations
  CG solver: Calculating converged R, Z, Q2 matrix
----------------------------------------------------------------------------------

--------------------------------------------------
 Gradient Information
--------------------------------------------------
           1 st state (SSR)
     0.01403234     0.00386459     0.04557217
     0.00837354    -0.04875331    -0.01801607
    -0.00302714    -0.00713944    -0.00262191
    -0.00621518     0.01434991    -0.02265841
     0.00008945     0.01606732    -0.01462399
    -0.01573913     0.04268327     0.00571288
    -0.00030801    -0.06312624    -0.00469948
    -0.04064574     0.00579636     0.02487907
    -0.00645941     0.01419676    -0.00078576
     0.03634468     0.01459936     0.05158668
    -0.00222515    -0.03048067     0.00107401
     0.01650021     0.02399461    -0.05388411
    -0.02642684     0.02238699    -0.00034835
     0.02570637    -0.00843950    -0.01118674

           2 st state (SSR)
     0.02504922     0.00804822     0.05207712
     0.00082449    -0.05082771    -0.04901649
    -0.00664388    -0.00422650    -0.00258994
    -0.00414328     0.01366121    -0.02240397
    -0.00882763     0.01455056    -0.01336266
     0.04477522     0.05089716     0.03506840
    -0.04325912    -0.07406903    -0.01369383
    -0.03695639     0.00170671     0.02608908
     0.00097110     0.02148178    -0.01075386
     0.02681960     0.08308279    -0.06059179
     0.00963737    -0.02474685     0.00589507
    -0.00550677    -0.05836184     0.07760597
    -0.02338283     0.02439693    -0.00706038
     0.02064289    -0.00559344    -0.01726271
--------------------------------------------------
 Coupling Information
--------------------------------------------------
 between  1 and  2 states
--------------------------------------------------
 g vector - difference gradient
    -0.00544178    -0.00204202    -0.00323713
     0.00372844     0.00078828     0.01543321
     0.00181293    -0.00146976    -0.00002557
    -0.00106155     0.00036006    -0.00012499
     0.00446140     0.00077964    -0.00060530
    -0.03010329    -0.00385600    -0.01459188
     0.02139312     0.00562655     0.00430663
    -0.00186526     0.00202142    -0.00060079
    -0.00372425    -0.00382315     0.00506389
     0.00471180    -0.03442874     0.05645785
    -0.00595396    -0.00287972    -0.00240422
     0.01104496     0.04138502    -0.06608461
    -0.00152294    -0.00100351     0.00338715
     0.00252037    -0.00145809     0.00302575

 h vector - derivative coupling
    -0.00187932    -0.00136604    -0.00046983
     0.00129869     0.00665111     0.00207563
    -0.00008767     0.00032659     0.00025498
     0.00066253    -0.00041206    -0.00006171
     0.00000741    -0.00055226    -0.00068759
    -0.00466754    -0.00676270    -0.00256355
     0.00259909    -0.00403108     0.00516101
     0.00051375     0.00066177    -0.00012361
     0.00016988     0.00474431    -0.00203365
     0.00144129     0.00434027    -0.00876834
     0.00049362     0.00028756    -0.00021312
    -0.00089843    -0.00473692     0.00781334
    -0.00000371    -0.00005778    -0.00076653
     0.00035041     0.00090723     0.00038296

 G vector - GDV
    -0.00550844    -0.00209182    -0.00325247
     0.00377452     0.00103720     0.01550021
     0.00180837    -0.00145647    -0.00001598
    -0.00103595     0.00034435    -0.00012722
     0.00445854     0.00075838    -0.00063066
    -0.03025718    -0.00410694    -0.01467776
     0.02147555     0.00547140     0.00449718
    -0.00184468     0.00204482    -0.00060501
    -0.00371525    -0.00364251     0.00498405
     0.00476254    -0.03424171     0.05608924
    -0.00593126    -0.00286691    -0.00241053
     0.01100349     0.04117822    -0.06574504
    -0.00152201    -0.00100497     0.00335602
     0.00253174    -0.00142303     0.00303799

 H vector - DCV - non-adiabatic coupling
    -0.01229155    -0.00946151    -0.00255597
     0.00850280     0.04858840     0.01098011
    -0.00114263     0.00280133     0.00187807
     0.00515401    -0.00312284    -0.00041840
    -0.00117440    -0.00426716    -0.00487876
    -0.02595885    -0.04856229    -0.01479219
     0.01317970    -0.03112957     0.03668504
     0.00428362     0.00429927    -0.00074155
     0.00227232     0.03586646    -0.01631752
     0.00927835     0.04133131    -0.07989173
     0.00526202     0.00290325    -0.00090165
    -0.00963474    -0.04615783     0.07553545
     0.00039226    -0.00014762    -0.00655767
     0.00187710     0.00705881     0.00197677
--------------------------------------------------


--------------------------------------------------------------------------------
DFTB+ running times                          cpu [s]             wall clock [s]
--------------------------------------------------------------------------------
SCC                                    +     0.13  ( 34.7%)      0.14  ( 34.5%)
      Dense to sparse                        0.03  (  6.5%)      0.03  (  7.4%)
      Range separated Hamiltonian            0.01  (  3.0%)      0.01  (  2.8%)
  Density matrix creation                    0.01  (  3.7%)      0.02  (  4.1%)
Post-SCC processing                    +     0.25  ( 64.9%)      0.25  ( 64.2%)
  Force calculation                          0.25  ( 64.9%)      0.25  ( 64.0%)
--------------------------------------------------------------------------------
Missing                                +     0.00  (  0.4%)      0.00  (  1.3%)
Total                                  =     0.39  (100.0%)      0.39  (100.0%)
--------------------------------------------------------------------------------
