     6
  Step:   600            Position(A)                                  Velocity(au)
C        -0.11753354     0.07697469     0.00458660     0.00000326     0.00000865    -0.00023964
N         0.08412605    -0.17590497     1.35750684     0.00040978     0.00003430    -0.00073617
H         0.23658327     0.92047986    -0.82475924    -0.00196692     0.00057798    -0.00092974
H         0.82442400    -0.46563482     1.73269315    -0.00103720    -0.00226657     0.00854880
H        -0.92121409     0.17706407     1.64446363    -0.00350002     0.00093808     0.00592091
H        -1.12139066     0.22551486    -0.57916376     0.00077076     0.00017084    -0.00045427
