    14
  Step:   600            Position(A)                                  Velocity(au)
C        -5.83974880    -0.88447260    -0.37131549     0.00013015     0.00053919    -0.00023123
C        -4.68416486    -0.57123335     0.16356737     0.00056668    -0.00075090     0.00047604
H        -6.17668824    -0.53972815    -1.34811065     0.00200926     0.00073297    -0.00019939
H        -6.70706369    -1.22659353     0.21631830    -0.00024359     0.00185652    -0.00035221
H        -4.63364663    -0.66536387     1.27255433     0.00118775     0.00091341     0.00141863
C        -3.53110990     0.22961298    -0.26798256    -0.00047320    -0.00020175    -0.00061551
C        -2.82774351     0.93289963     0.79054783     0.00005063    -0.00007489     0.00025480
H        -3.08073409     0.16739341    -1.26392470     0.00256534    -0.00097167    -0.00019737
H        -3.35416541     0.85745189     1.85835926    -0.00203946     0.00013605    -0.00196845
C        -1.60270191     1.67727001     0.65456387     0.00019516     0.00049806     0.00029014
H        -1.25306508     2.30847999     1.37609705     0.00055679     0.00115545     0.00119077
N        -0.93061243     1.57040271    -0.48842781    -0.00049866    -0.00028168    -0.00018296
H        -0.31421537     2.41550545    -0.54428003     0.00286714    -0.00287041     0.00000160
H        -1.24794073     1.00788512    -1.31574412    -0.00556718     0.00284634     0.00057303
