    14
  Step:     0            Position(A)                                  Velocity(au)
C        -5.96456888    -0.86073161    -0.04285096     0.00003445    -0.00002872     0.00016076
C        -4.63147660    -0.67723723     0.20487969    -0.00028618    -0.00014174    -0.00013091
H        -6.58406666    -0.08808306    -0.43682771     0.00040457    -0.00040373     0.00003101
H        -6.39206194    -1.85193388     0.16354976     0.00035649     0.00083932    -0.00064579
H        -4.04931929    -1.48533224     0.66301636     0.00007629    -0.00027984     0.00034717
C        -4.00224461     0.51205142    -0.17208688    -0.00001478     0.00022262    -0.00003441
C        -2.63383488     0.62090692     0.11124507     0.00027744    -0.00020439     0.00007209
H        -4.58459113     1.37389062    -0.67202471     0.00115380     0.00084477    -0.00005020
H        -2.13345042    -0.30378937     0.47708288    -0.00002767    -0.00033867     0.00012829
C        -1.76365891     1.74412045    -0.08608045    -0.00035127    -0.00006252    -0.00012462
H        -2.07648866     2.64465679    -0.66262096    -0.00039057     0.00049236    -0.00055429
N        -0.54996316     1.66030057     0.30299153     0.00009920     0.00011119     0.00011826
H         0.07232668     2.43991921     0.21330533     0.00054529     0.00023541    -0.00032998
H        -0.22838880     0.88252340     0.87780611     0.00055877    -0.00037582     0.00011089
    14
  Step:     1            Position(A)                                  Velocity(au)
C        -5.96433066    -0.86123101    -0.04106428     0.00000979    -0.00006054     0.00016504
C        -4.63454644    -0.67875544     0.20345994    -0.00027207    -0.00013496    -0.00012801
H        -6.58025242    -0.09183044    -0.43682611     0.00028311    -0.00026881    -0.00003634
H        -6.38843103    -1.84227829     0.15627513     0.00029026     0.00088642    -0.00067355
H        -4.04848068    -1.48810364     0.66673421     0.00006781    -0.00021422     0.00032323
C        -4.00277852     0.51458573    -0.17258457    -0.00008065     0.00023912    -0.00005549
C        -2.63027566     0.61880894     0.11206491     0.00036980    -0.00017982     0.00007726
H        -4.57091872     1.38141862    -0.67176480     0.00133414     0.00053314     0.00009478
H        -2.13409886    -0.30678009     0.47834905    -0.00008737    -0.00020833     0.00010451
C        -1.76816962     1.74335265    -0.08762542    -0.00046740    -0.00007655    -0.00015689
H        -2.08062498     2.64935100    -0.66794573    -0.00036218     0.00034850    -0.00040857
N        -0.54840825     1.66148820     0.30444563     0.00018283     0.00010651     0.00014694
H         0.07893495     2.44297071     0.20960419     0.00064430     0.00030199    -0.00034426
H        -0.22233437     0.87859131     0.87885535     0.00053862    -0.00032359     0.00006728
    14
  Step:     2            Position(A)                                  Velocity(au)
C        -5.96435469    -0.86205604    -0.03924038    -0.00001381    -0.00008727     0.00016721
C        -4.63742871    -0.68018984     0.20207917    -0.00025206    -0.00012608    -0.00012396
H        -6.57787306    -0.09396387    -0.43762265     0.00014834    -0.00011619    -0.00011113
H        -6.38571205    -1.83254185     0.14881447     0.00018853     0.00085046    -0.00067931
H        -4.04783577    -1.49001880     0.67008753     0.00004279    -0.00012600     0.00028193
C        -4.00400891     0.51728259    -0.17330076    -0.00014156     0.00025141    -0.00007385
C        -2.62574470     0.61697304     0.11293539     0.00045444    -0.00015631     0.00008118
H        -4.55540434     1.38555399    -0.66995113     0.00148470     0.00023368     0.00022862
H        -2.13536172    -0.30834698     0.47936921    -0.00013713    -0.00008266     0.00008525
C        -1.77388428     1.74244571    -0.08951279    -0.00056936    -0.00008841    -0.00018637
H        -2.08441197     2.65228086    -0.67155925    -0.00032983     0.00017682    -0.00024596
N        -0.54596345     1.66263070     0.30620612     0.00026050     0.00010351     0.00017351
H         0.08642204     2.44652585     0.20577396     0.00070474     0.00032612    -0.00035306
H        -0.21660539     0.87544435     0.87927808     0.00050215    -0.00023809     0.00000079
    14
  Step:     3            Position(A)                                  Velocity(au)
C        -5.96463280    -0.86314030    -0.03740616    -0.00003707    -0.00010724     0.00016665
C        -4.64006064    -0.68151374     0.20074815    -0.00022667    -0.00011449    -0.00011911
H        -6.57700725    -0.09437227    -0.43925727     0.00001284     0.00003855    -0.00018549
H        -6.38430659    -1.82367293     0.14141391     0.00005067     0.00072830    -0.00066303
H        -4.04754467    -1.49086006     0.67290198     0.00000557    -0.00002120     0.00022650
C        -4.00587535     0.52008589    -0.17420008    -0.00019634     0.00025771    -0.00008848
C        -2.62033396     0.61538936     0.11384079     0.00053006    -0.00013357     0.00008350
H        -4.53843813     1.38653074    -0.66676323     0.00159387    -0.00003463     0.00034063
H        -2.13709878    -0.30858850     0.48021399    -0.00017150     0.00002991     0.00007439
C        -1.78062549     1.74141843    -0.09170272    -0.00065368    -0.00009896    -0.00021155
H        -2.08784070     2.65321925    -0.67332666    -0.00029959    -0.00000849    -0.00007561
N        -0.54270931     1.66375279     0.30824143     0.00032969     0.00010319     0.00019655
H         0.09435254     2.45010517     0.20188035     0.00072634     0.00030766    -0.00035565
H        -0.21134884     0.87338263     0.87887260     0.00045559    -0.00013195    -0.00007909
    14
  Step:     4            Position(A)                                  Velocity(au)
C        -5.96516558    -0.86440220    -0.03559460    -0.00006082    -0.00011956     0.00016292
C        -4.64238749    -0.68269454     0.19947341    -0.00019680    -0.00009974    -0.00011388
H        -6.57759211    -0.09312060    -0.44168063    -0.00011112     0.00017997    -0.00025153
H        -6.38460359    -1.81660897     0.13430938    -0.00011986     0.00052643    -0.00062668
H        -4.04771391    -1.49048265     0.67504255    -0.00003871     0.00009319     0.00016085
C        -4.00830426     0.52292044    -0.17523642    -0.00024373     0.00025631    -0.00009841
C        -2.61414860     0.61405090     0.11476209     0.00059547    -0.00011142     0.00008395
H        -4.52053536     1.38479630    -0.66249922     0.00165050    -0.00025174     0.00041980
H        -2.13911350    -0.30769256     0.48099661    -0.00018574     0.00012166     0.00007555
C        -1.78818474     1.74028079    -0.09414085    -0.00071805    -0.00010890    -0.00023128
H        -2.09096614     2.65209509    -0.67321345    -0.00027711    -0.00019320     0.00009329
N        -0.53875086     1.66488825     0.31050592     0.00038848     0.00010620     0.00021494
H         0.10231220     2.45325655     0.19799342     0.00071279     0.00025125    -0.00035198
H        -0.20663853     0.87255759     0.87754782     0.00040565    -0.00001900    -0.00016223
    14
  Step:     5            Position(A)                                  Velocity(au)
C        -5.96596343    -0.86575598    -0.03384192    -0.00008598    -0.00012444     0.00015590
C        -4.64436603    -0.68369567     0.19825681    -0.00016368    -0.00008159    -0.00010870
H        -6.57943821    -0.09043498    -0.44476001    -0.00021338     0.00029501    -0.00030245
H        -6.38692875    -1.81215629     0.12770419    -0.00031479     0.00026237    -0.00057414
H        -4.04839143    -1.48882129     0.67642091    -0.00008454     0.00020980     0.00008945
C        -4.01120749     0.52569314    -0.17635299    -0.00028230     0.00024574    -0.00010271
C        -2.60730686     0.61295185     0.11567744     0.00064942    -0.00008988     0.00008232
H        -4.50233035     1.38102342    -0.65757936     0.00164456    -0.00039739     0.00045532
H        -2.14116218    -0.30592690     0.48186690    -0.00017618     0.00018611     0.00009174
C        -1.79633429     1.73903594    -0.09676233    -0.00076128    -0.00011876    -0.00024480
H        -2.09390294     2.64899273    -0.67128570    -0.00026750    -0.00036323     0.00025165
N        -0.53421057     1.66607609     0.31294366     0.00043564     0.00011284     0.00022794
H         0.10994629     2.45560173     0.19418004     0.00067087     0.00016521    -0.00034266
H        -0.20247447     0.87296695     0.87532359     0.00035892     0.00008697    -0.00023879
    14
  Step:     6            Position(A)                                  Velocity(au)
C        -5.96704664    -0.86712464    -0.03218393    -0.00011339    -0.00012323     0.00014579
C        -4.64596829    -0.68447950     0.19709550    -0.00012883    -0.00006008    -0.00010397
H        -6.58226030    -0.08666661    -0.44829741    -0.00028704     0.00037445    -0.00033343
H        -6.39149031    -1.81086906     0.12174895    -0.00052134    -0.00003641    -0.00051081
H        -4.04956348    -1.48589297     0.67699955    -0.00012633     0.00032113     0.00001703
C        -4.01448011     0.52829653    -0.17748331    -0.00031051     0.00022496    -0.00010059
C        -2.59994120     0.61208462     0.11656291     0.00069060    -0.00006929     0.00007845
H        -4.48455746     1.37610253    -0.65253825     0.00156863    -0.00045352     0.00043788
H        -2.14296784    -0.30362109     0.48300363    -0.00014062     0.00021883     0.00012501
C        -1.80483927     1.73768274    -0.09949628    -0.00078310    -0.00012879    -0.00025173
H        -2.09681829     2.64414875    -0.66770819    -0.00027520    -0.00050501     0.00039065
N        -0.52922032     1.66735688     0.31549257     0.00047060     0.00012312     0.00023516
H         0.11698871     2.45687080     0.19049706     0.00060947     0.00006040    -0.00032887
H        -0.19878653     0.87446029     0.87232381     0.00032134     0.00017325    -0.00030000
    14
  Step:     7            Position(A)                                  Velocity(au)
C        -5.96844408    -0.86845192    -0.03065254    -0.00014371    -0.00011816     0.00013304
C        -4.64718435    -0.68501010     0.19598226    -0.00009395    -0.00003546    -0.00010008
H        -6.58571786    -0.08224314    -0.45205451    -0.00032895     0.00041361    -0.00034200
H        -6.39833413    -1.81295286     0.11652934    -0.00072370    -0.00033631    -0.00044263
H        -4.05115519    -1.48179598     0.67679348    -0.00015866     0.00041998    -0.00005168
C        -4.01800047     0.53061464    -0.17855352    -0.00032708     0.00019361    -0.00009161
C        -2.59219874     0.61143594     0.11739361     0.00071778    -0.00005035     0.00007234
H        -4.46801358     1.37110171    -0.64800000     0.00141991    -0.00040817     0.00036170
H        -2.14423854    -0.30113957     0.48460166    -0.00007869     0.00021825     0.00017604
C        -1.81346612     1.73621852    -0.10226943    -0.00078393    -0.00013902    -0.00025199
H        -2.09992353     2.63794464    -0.66273942    -0.00030379    -0.00060589     0.00050220
N        -0.52391522     1.66876951     0.31808830     0.00049331     0.00013673     0.00023657
H         0.12327963     2.45692301     0.18698532     0.00053866    -0.00005099    -0.00031230
H        -0.19544444     0.87675713     0.86876053     0.00029771     0.00022937    -0.00033892
    14
  Step:     8            Position(A)                                  Velocity(au)
C        -5.97019057    -0.86970954    -0.02927342    -0.00017731    -0.00011182     0.00011828
C        -4.64802359    -0.68525528     0.19490597    -0.00006078    -0.00000812    -0.00009736
H        -6.58945670    -0.07761801    -0.45577929    -0.00033946     0.00041213    -0.00032797
H        -6.40732272    -1.81822643     0.11206552    -0.00090561    -0.00060346    -0.00037511
H        -4.05303436    -1.47670519     0.67586903    -0.00017662     0.00049975    -0.00011219
C        -4.02163564     0.53253210    -0.17948747    -0.00033146     0.00015233    -0.00007593
C        -2.58423841     0.61098322     0.11814558     0.00073017    -0.00003401     0.00006419
H        -4.45349419     1.36717296    -0.64462527     0.00120263    -0.00026081     0.00022741
H        -2.14468929    -0.29884643     0.48685492     0.00000791     0.00018623     0.00024389
C        -1.82198924     1.73464132    -0.10500911    -0.00076472    -0.00014933    -0.00024576
H        -2.10346417     2.63089375    -0.65672163    -0.00035573    -0.00065508     0.00057955
N        -0.51842826     1.67034818     0.32066792     0.00050412     0.00015313     0.00023243
H         0.12877304     2.45575540     0.18366484     0.00046878    -0.00015645    -0.00029501
H        -0.19227349     0.87947827     0.86490929     0.00029111     0.00024836    -0.00035126
    14
  Step:     9            Position(A)                                  Velocity(au)
C        -5.97232305    -0.87089815    -0.02806492    -0.00021417    -0.00010663     0.00010217
C        -4.64851399    -0.68518764     0.19385228    -0.00003090     0.00002149    -0.00009606
H        -6.59314409    -0.07322710    -0.45922942    -0.00032172     0.00037310    -0.00029306
H        -6.41814612    -1.82615478     0.10832311    -0.00105312    -0.00080980    -0.00031238
H        -4.05501899    -1.47086298     0.67433920    -0.00017621     0.00055495    -0.00016062
C        -4.02525177     0.53394717    -0.18021460    -0.00032414     0.00010307    -0.00005449
C        -2.57622492     0.61069191     0.11879794     0.00072758    -0.00002147     0.00005438
H        -4.44170372     1.36539610    -0.64302507     0.00092948    -0.00002670     0.00004427
H        -2.14406554    -0.29706533     0.48993726     0.00011533     0.00012839     0.00032579
C        -1.83019577     1.73295160    -0.10764582    -0.00072682    -0.00015938    -0.00023344
H        -2.10770586     2.62361360    -0.65006057    -0.00043203    -0.00064519     0.00061837
N        -0.51288671     1.67211951     0.32317311     0.00050371     0.00017148     0.00022332
H         0.13353520     2.45350030     0.18053144     0.00040962    -0.00024424    -0.00027927
H        -0.18907578     0.88219041     0.86107599     0.00030251     0.00022781    -0.00033606
    14
  Step:    10            Position(A)                                  Velocity(au)
C        -5.97487589    -0.87204229    -0.02703832    -0.00025383    -0.00010442     0.00008532
C        -4.64869969    -0.68478523     0.19280452    -0.00000567     0.00005280    -0.00009632
H        -6.59649497    -0.06945583    -0.46219062    -0.00028094     0.00030222    -0.00024046
H        -6.43036167    -1.83594239     0.10523168    -0.00115657    -0.00093703    -0.00025689
H        -4.05688929    -1.46456463     0.67235526    -0.00015474     0.00058165    -0.00019405
C        -4.02872677     0.53478697    -0.18067955    -0.00030667     0.00004911    -0.00002909
C        -2.56832112     0.61051362     0.11933529     0.00071053    -0.00001401     0.00004349
H        -4.43315998     1.36658892    -0.64365673     0.00062099     0.00026212    -0.00016920
H        -2.14216614    -0.29603768     0.49398225     0.00023783     0.00005380     0.00041730
C        -1.83788982     1.73115460    -0.11011611    -0.00067195    -0.00016859    -0.00021573
H        -2.11291564     2.61677891    -0.64319360    -0.00053178    -0.00057394     0.00061768
N        -0.50740865     1.67409971     0.32555350     0.00049306     0.00019074     0.00021009
H         0.13773421     2.45041210     0.17755536     0.00036959    -0.00030432    -0.00026736
H        -0.18565543     0.88446195     0.85755739     0.00033054     0.00017066    -0.00029601
    14
  Step:    11            Position(A)                                  Velocity(au)
C        -5.97787597    -0.87318247    -0.02619847    -0.00029540    -0.00010623     0.00006827
C        -4.64863796    -0.68403255     0.19174501     0.00001392     0.00008518    -0.00009818
H        -6.59929019    -0.06661538    -0.46448985    -0.00022363     0.00020696    -0.00017429
H        -6.44344823    -1.84665409     0.10270321    -0.00121145    -0.00097796    -0.00020950
H        -4.05840429    -1.45813823     0.67009406    -0.00011127     0.00057808    -0.00021090
C        -4.03196066     0.53502148    -0.18085101    -0.00028131    -0.00000532    -0.00000214
C        -2.56068072     0.61038543     0.11974941     0.00068007    -0.00001292     0.00003222
H        -4.42811832     1.37113049    -0.64672668     0.00030248     0.00056130    -0.00038774
H        -2.13886250    -0.29588826     0.49906649     0.00036830    -0.00002598     0.00051269
C        -1.84489601     1.72926338    -0.11236543    -0.00060211    -0.00017606    -0.00019360
H        -2.11933963     2.61105746    -0.63654753    -0.00065185    -0.00044573     0.00058075
N        -0.50210010     1.67629227     0.32776915     0.00047338     0.00020968     0.00019377
H         0.14162065     2.44684279     0.17468249     0.00035488    -0.00032943    -0.00026129
H        -0.18184466     0.88592382     0.85460026     0.00037152     0.00008522    -0.00023737
    14
  Step:    12            Position(A)                                  Velocity(au)
C        -5.98133837    -0.87436634    -0.02554478    -0.00033769    -0.00011242     0.00005149
C        -4.64839513    -0.68292183     0.19065667     0.00002721     0.00011783    -0.00010149
H        -6.60138725    -0.06492825    -0.46600363    -0.00015699     0.00009574    -0.00009932
H        -6.45686453    -1.85733707     0.10064843    -0.00121809    -0.00093525    -0.00016984
H        -4.05932357    -1.45191796     0.66774137    -0.00004695     0.00054506    -0.00021124
C        -4.03488098     0.53467061    -0.18072633    -0.00025057    -0.00005578     0.00002379
C        -2.55344324     0.61023091     0.12004021     0.00063768    -0.00001931     0.00002131
H        -4.42654268     1.37886848    -0.65213918    -0.00000074     0.00082352    -0.00058434
H        -2.13410891    -0.29660610     0.50519826     0.00049908    -0.00009859     0.00060556
C        -1.85106211     1.72730288    -0.11435141    -0.00051949    -0.00018053    -0.00016827
H        -2.12717612     2.60702780    -0.63048860    -0.00078664    -0.00027251     0.00051529
N        -0.49705260     1.67868680     0.32979254     0.00044608     0.00022707     0.00017552
H         0.14549790     2.44320527     0.17183923     0.00036855    -0.00031617    -0.00026246
H        -0.17752767     0.88632632     0.85236454     0.00041997    -0.00001573    -0.00016917
    14
  Step:    13            Position(A)                                  Velocity(au)
C        -5.98526358    -0.87564177    -0.02507194    -0.00037929    -0.00012276     0.00003539
C        -4.64804260    -0.68145477     0.18952470     0.00003394     0.00014983    -0.00010597
H        -6.60272471    -0.06452082    -0.46666257    -0.00008847    -0.00002250    -0.00002054
H        -6.47009619    -1.86711453     0.09898756    -0.00118047    -0.00081877    -0.00013678
H        -4.05943148    -1.44621410     0.66547273     0.00003480     0.00048619    -0.00019692
C        -4.03744226     0.53380117    -0.18033047    -0.00021666    -0.00009855     0.00004647
C        -2.54673035     0.60996297     0.12021567     0.00058506    -0.00003392     0.00001145
H        -4.42813460     1.38914664    -0.65951027    -0.00026803     0.00100896    -0.00073606
H        -2.12794413    -0.29804504     0.51231436     0.00062279    -0.00015257     0.00068965
C        -1.85626090     1.72531385    -0.11604661    -0.00042645    -0.00018047    -0.00014117
H        -2.13654895     2.60509585    -0.62527453    -0.00092837    -0.00007302     0.00043280
N        -0.49234122     1.68125979     0.33160896     0.00041275     0.00024185     0.00015647
H         0.14968329     2.43992605     0.16894060     0.00040979    -0.00026576    -0.00027141
H        -0.17265709     0.88557969     0.85089932     0.00046932    -0.00011685    -0.00010188
    14
  Step:    14            Position(A)                                  Velocity(au)
C        -5.98963613    -0.87705197    -0.02477057    -0.00041876    -0.00013672     0.00002031
C        -4.64765258    -0.67964406     0.18833835     0.00003421     0.00018011    -0.00011118
H        -6.60332264    -0.06542053    -0.46645300    -0.00002538    -0.00013877     0.00005696
H        -6.48268964    -1.87524918     0.09765616    -0.00110509    -0.00064282    -0.00010880
H        -4.05856234    -1.44128170     0.66343334     0.00012837     0.00040780    -0.00017155
C        -4.03962089     0.53251470    -0.17970961    -0.00018128    -0.00013122     0.00006438
C        -2.54064401     0.60948884     0.12029076     0.00052407    -0.00005696     0.00000319
H        -4.43240637     1.40094143    -0.66824186    -0.00048619     0.00109275    -0.00082810
H        -2.12048422    -0.29994393     0.52028564     0.00073299    -0.00017906     0.00075949
C        -1.86039157     1.72335468    -0.11743984    -0.00032542    -0.00017434    -0.00011376
H        -2.14748597     2.60543037    -0.62102034    -0.00106769     0.00012970     0.00034687
N        -0.48802301     1.68397763     0.33321560     0.00037504     0.00025332     0.00013759
H         0.15446285     2.43739116     0.16590157     0.00047367    -0.00018436    -0.00028754
H        -0.16726042     0.88377008     0.85013576     0.00051296    -0.00020264    -0.00004573
    14
  Step:    15            Position(A)                                  Velocity(au)
C        -5.99442469    -0.87863287    -0.02462770    -0.00045468    -0.00015358     0.00000655
C        -4.64729426    -0.67751461     0.18709241     0.00002844     0.00020753    -0.00011657
H        -6.60327991    -0.06755662    -0.46541641     0.00002533    -0.00024427     0.00012828
H        -6.49427225    -1.88117738     0.09660732    -0.00099980    -0.00042389    -0.00008431
H        -4.05662307    -1.43729265     0.66171978     0.00022643     0.00031836    -0.00014014
C        -4.04140819     0.53093050    -0.17892204    -0.00014551    -0.00015290     0.00007680
C        -2.53526522     0.60871686     0.12028542     0.00045667    -0.00008799    -0.00000313
H        -4.43877084     1.41305269    -0.67762645    -0.00064973     0.00106693    -0.00085500
H        -2.11190859    -0.30196221     0.52892965     0.00082470    -0.00017275     0.00081102
C        -1.86338009     1.72149989    -0.11853542    -0.00021884    -0.00016090    -0.00008733
H        -2.15990673     2.60793320    -0.61768619    -0.00119472     0.00031194     0.00027100
N        -0.48413655     1.68680157     0.33461891     0.00033464     0.00026128     0.00011956
H         0.16004576     2.43589280     0.16265002     0.00055142    -0.00008249    -0.00030912
H        -0.16143502     0.88114659     0.84989896     0.00054518    -0.00025994    -0.00000917
    14
  Step:    16            Position(A)                                  Velocity(au)
C        -5.99958318    -0.88041186    -0.02462722    -0.00048579    -0.00017251    -0.00000562
C        -4.64703050    -0.67510387     0.18578818     0.00001730     0.00023100    -0.00012154
H        -6.60276841    -0.07076444    -0.46364666     0.00005742    -0.00033085     0.00018887
H        -6.50456227    -1.88452257     0.09581181    -0.00087316    -0.00017932    -0.00006168
H        -4.05360874    -1.43431687     0.66036762     0.00032066     0.00022746    -0.00010844
C        -4.04280424     0.52916974    -0.17802943    -0.00010994    -0.00016395     0.00008373
C        -2.53065353     0.60756396     0.12022218     0.00038480    -0.00012588    -0.00000740
H        -4.44662039     1.42428261    -0.68694653    -0.00075928     0.00093761    -0.00081918
H        -2.10244240    -0.30372310     0.53802822     0.00089455    -0.00013228     0.00084182
C        -1.86517908     1.71983469    -0.11935040    -0.00010909    -0.00013957    -0.00006283
H        -2.17362267     2.61225465    -0.61509174    -0.00130013     0.00045323     0.00021641
N        -0.48070213     1.68969365     0.33583119     0.00029315     0.00026607     0.00010275
H         0.16652624     2.43558663     0.15913898     0.00063148     0.00002631    -0.00033343
H        -0.15533352     0.87808335     0.84993513     0.00056186    -0.00027979     0.00000222
    14
  Step:    17            Position(A)                                  Velocity(au)
C        -6.00505227    -0.88240689    -0.02475055    -0.00051097    -0.00019260    -0.00001601
C        -4.64691569    -0.67246111     0.18443360     0.00000164     0.00024950    -0.00012550
H        -6.60202365    -0.07479448    -0.46128447     0.00006572    -0.00039143     0.00023489
H        -6.51337423    -1.88510035     0.09525801    -0.00073406     0.00007332    -0.00003932
H        -4.04960799    -1.43231654     0.65934736     0.00040278     0.00014454    -0.00008219
C        -4.04381332     0.52734377    -0.17709024    -0.00007484    -0.00016559     0.00008565
C        -2.52684707     0.60596294     0.12012355     0.00031041    -0.00016892    -0.00000971
H        -4.45538163     1.43356467    -0.69554766    -0.00081940     0.00072012    -0.00072838
H        -2.09233856    -0.30485619     0.54734606     0.00094076    -0.00005991     0.00085114
C        -1.86576665     1.71844657    -0.11991005     0.00000158    -0.00011059    -0.00004079
H        -2.18834964     2.61784837    -0.61295178    -0.00137621     0.00053920     0.00019054
N        -0.47772325     1.69262243     0.33686684     0.00025198     0.00026847     0.00008721
H         0.17386067     2.43646842     0.15535554     0.00070118     0.00012752    -0.00035722
H        -0.14914324     0.87502571     0.84994762     0.00056087    -0.00025835    -0.00001373
    14
  Step:    18            Position(A)                                  Velocity(au)
C        -6.01076159    -0.88462537    -0.02497755    -0.00052932    -0.00021281    -0.00002456
C        -4.64699464    -0.66964548     0.18304270    -0.00001767     0.00026229    -0.00012796
H        -6.60133063    -0.07932772    -0.45850802     0.00004660    -0.00042075     0.00026350
H        -6.52062132    -1.88291854     0.09495155    -0.00059163     0.00031650    -0.00001564
H        -4.04479720    -1.43115474     0.65856960     0.00046549     0.00007770    -0.00006625
C        -4.04444152     0.52554704    -0.17615572    -0.00004035    -0.00015951     0.00008329
C        -2.52386273     0.60386853     0.12000978     0.00023543    -0.00021488    -0.00001036
H        -4.46454638     1.44003658    -0.70288129    -0.00083656     0.00043425    -0.00059300
H        -2.08186141    -0.30503363     0.55664848     0.00096294     0.00003921     0.00083973
C        -1.86514442     1.71741531    -0.12024270     0.00011114    -0.00007510    -0.00002125
H        -2.20372979     2.62405063    -0.61092325    -0.00141743     0.00056303     0.00019649
N        -0.47518959     1.69556699     0.33773899     0.00021221     0.00026953     0.00007269
H         0.18186579     2.43837630     0.15132409     0.00074863     0.00020794    -0.00037721
H        -0.14306337     0.87243142     0.84963470     0.00054210    -0.00019697    -0.00005597
    14
  Step:    19            Position(A)                                  Velocity(au)
C        -6.01663215    -0.88706251    -0.02528780    -0.00054019    -0.00023192    -0.00003130
C        -4.64730236    -0.66672295     0.18163429    -0.00003977     0.00026890    -0.00012856
H        -6.60100413    -0.08399909    -0.45551983    -0.00000152    -0.00041602     0.00027330
H        -6.52631716    -1.87817637     0.09491585    -0.00045508     0.00053276     0.00001104
H        -4.03942453    -1.43061662     0.65789801     0.00050327     0.00003273    -0.00006408
C        -4.04469602     0.52385429    -0.17526816    -0.00000656    -0.00014753     0.00007750
C        -2.52169667     0.60126192     0.11989693     0.00016169    -0.00026126    -0.00000979
H        -4.47368290     1.44306470    -0.70852069    -0.00081787     0.00010098    -0.00042433
H        -2.07127245    -0.30399845     0.56571687     0.00096185     0.00015772     0.00080964
C        -1.86333525     1.71680365    -0.12037490     0.00021776    -0.00003497    -0.00000389
H        -2.21935858     2.63016582    -0.60865321    -0.00142074     0.00052512     0.00023340
N        -0.47308079     1.69851897     0.33845704     0.00017456     0.00027039     0.00005880
H         0.19023841     2.44101760     0.14710325     0.00076457     0.00025771    -0.00039067
H        -0.13728370     0.87071651     0.84872309     0.00050723    -0.00010145    -0.00012072
    14
  Step:    20            Position(A)                                  Velocity(au)
C        -6.02257919    -0.88969902    -0.02566228    -0.00054317    -0.00024849    -0.00003645
C        -4.64786472    -0.66376272     0.18023015    -0.00006386     0.00026921    -0.00012713
H        -6.60136378    -0.08842895    -0.45252916    -0.00007781    -0.00037760     0.00026456
H        -6.53057709    -1.87126330     0.09519310    -0.00033368     0.00070500     0.00004247
H        -4.03378725    -1.43043866     0.65716771     0.00051276     0.00001264    -0.00007740
C        -4.04458499     0.52231958    -0.17446023     0.00002642    -0.00013154     0.00006917
C        -2.52032538     0.59815300     0.11979566     0.00009094    -0.00030542    -0.00000852
H        -4.48243884     1.44224569    -0.71216436    -0.00077054    -0.00025914    -0.00023366
H        -2.06081902    -0.30158318     0.57436095     0.00093920     0.00028700     0.00076386
C        -1.86038062     1.71665035    -0.12032788     0.00031984     0.00000744     0.00001186
H        -2.23481119     2.63553860    -0.60581720    -0.00138535     0.00043156     0.00029745
N        -0.47137085     1.70148236     0.33902528     0.00013934     0.00027210     0.00004505