 Fermi distribution function

Calculation with static geometry


********************************************************************************
 iSCC Total electronic   Diff electronic      SCC error    
   13   -0.52522188E+01   -0.12376926E-08    0.27826571E-06
********************************************************************************

 Total charge:     1.00000000

 Atomic gross charges (e)
 Atom           Charge
    1       0.30827501
    2      -0.19233149
    3       0.18691867
    4       0.26180014
    5       0.25671587
    6       0.17862180

Nr. of electrons (up):     12.00000000
Atom populations (up)
 Atom       Population
    1       3.69172499
    2       5.19233149
    3       0.81308133
    4       0.73819986
    5       0.74328413
    6       0.82137820

l-shell populations (up)
 Atom Sh.   l       Population
    1   1   0       1.41885713
    1   2   1       2.27286786
    2   1   0       1.53833476
    2   2   1       3.65399673
    3   1   0       0.81308133
    4   1   0       0.73819986
    5   1   0       0.74328413
    6   1   0       0.82137820

Orbital populations (up)
 Atom Sh.   l   m       Population  Label
    1   1   0   0       1.41885713  s
    1   2   1  -1       0.41763821  p_y
    1   2   1   0       0.86386908  p_z
    1   2   1   1       0.99136057  p_x
    2   1   0   0       1.53833476  s
    2   2   1  -1       1.39380658  p_y
    2   2   1   0       1.07395393  p_z
    2   2   1   1       1.18623622  p_x
    3   1   0   0       0.81308133  s
    4   1   0   0       0.73819986  s
    5   1   0   0       0.74328413  s
    6   1   0   0       0.82137820  s

Fermi level:                        -0.5209562619 H          -14.1759 eV
Band energy:                        -8.6422596969 H         -235.1679 eV
TS:                                  0.0000000000 H            0.0000 eV
Band free energy (E-TS):            -8.6422596969 H         -235.1679 eV
Extrapolated E(0K):                 -8.6422596969 H         -235.1679 eV
Input / Output electrons (q):     12.0000000000     12.0000000000

Energy H0:                          -5.3892952589 H         -146.6502 eV
Energy SCC:                          0.1370764461 H            3.7300 eV
Total Electronic energy:            -5.2522188128 H         -142.9201 eV
Repulsive energy:                    0.1307710561 H            3.5585 eV
Total energy:                       -5.1214477567 H         -139.3617 eV
Extrapolated to 0:                  -5.1214477567 H         -139.3617 eV
Total Mermin free energy:           -5.1214477567 H         -139.3617 eV
Force related energy:               -5.1214477567 H         -139.3617 eV

SCC converged

Excitation Energy:                   0.0931682474 H            2.5352 eV

Total Forces
    1      0.007467355360      0.001963991703      0.025973331696
    2      0.003556785930      0.015982834630     -0.029388725690
    3     -0.003883341047     -0.011152730107     -0.001295480491
    4     -0.005900250254     -0.000026056239     -0.000257019247
    5     -0.000959342917     -0.012257456481      0.003727376279
    6     -0.000281207073      0.005489416494      0.001240517453

Maximal derivative component:        0.293887E-01 au


