     6
  Step:   120            Position(A)                                  Velocity(au)
C        -0.06095784    -0.06262811    -0.03459966    -0.00010631    -0.00006340    -0.00004654
N        -0.03580308    -0.05667260     1.34585218     0.00002646     0.00013375    -0.00008217
H         0.90527258     0.06807268    -0.62231214     0.00019826    -0.00102681     0.00026989
H         0.79311490     0.31951615     1.87648390    -0.00082473     0.00064024     0.00013874
H        -0.92610553    -0.24998003     1.85895461     0.00055295    -0.00165988     0.00030488
H        -0.76130997     0.72643769    -0.51125078     0.00097264     0.00094333     0.00098297
