|===============================================================================
|
|  DFTB+ release 20.1
|
|  Copyright (C) 2006 - 2020  DFTB+ developers group
|
|===============================================================================
|
|  When publishing results obtained with DFTB+, please cite the following
|  reference:
|
|  * DFTB+, a software package for efficient approximate density functional
|    theory based atomistic simulations, J. Chem. Phys. 152, 124101 (2020).
|    [doi: 10.1063/1.5143190]
|
|  You should also cite additional publications crediting the parametrization
|  data you use. Please consult the documentation of the SK-files for the
|  references.
|
|===============================================================================

Reading input file 'dftb_in.hsd'
Parser version: 8

--------------------------------------------------------------------------------
Reading SK-files:
Done.


Processed input in HSD format written to 'dftb_pin.hsd'

Starting initialization...
--------------------------------------------------------------------------------
OpenMP threads:              1
Chosen random seed:          509435014
Mode:                        Static calculation
Self consistent charges:     Yes
SCC-tolerance:                 0.100000E-05
Max. scc iterations:                   1000
Shell resolved Hubbard:      No
Spin polarisation:           No
Nr. of up electrons:             6.000000
Nr. of down electrons:           6.000000
Periodic boundaries:         No
Electronic solver:           Relatively robust
Maximal SCC-cycles:                    1000
Initial charges:             Set automatically (system chrg:   0.100E+01)
Included shells:             C:  s, p
                             N:  s, p
                             H:  s
Spin coupling constants:     C   1(s)-1(s):  -0.455900E-01
                             C   1(s)-2(p):  -0.293000E-01
                             C   2(p)-1(s):  -0.293000E-01
                             C   2(p)-2(p):  -0.275500E-01
                             N   1(s)-1(s):  -0.468700E-01
                             N   1(s)-2(p):  -0.317000E-01
                             N   2(p)-1(s):  -0.317000E-01
                             N   2(p)-2(p):  -0.307200E-01
                             H   1(s)-1(s):  -0.792500E-01
Range separated hybrid:      Yes
  Screening parameter omega:   0.300000E+00
  Range separated algorithm:   MatrixBased
Extra options:
                             Mulliken analysis
                             Force calculation
Force type                   original
                             Eigenvector printing


REKS Calcuation:             Yes
SSR(2,2) Calcuation:         Yes
Energy Functional:           (PPS+OSS)/2
Number of Core Orbitals:                  5
Number of Active Orbitals:                2
Number of Basis:                         12
Number of States:                         2
State-Averaging Weight:          0.500000
                                 0.500000
State of Interest:                        1
Initial Guess:               Diagonalize H0 matrix
Newton-Raphson for FON opt:  Yes
NR max. Iterations:                      50
Level Shifting:              Yes
Shift Value:                     0.300000
W Scale Factor:              C  =    3.000000
                             N  =    3.000000
                             H  =    3.000000
Transition Dipole:           No
Gradient of Microstate:      No
CP-REKS Solver:              Preconditioned Conjugate-Gradient
CG max. Iterations:                     100
CG Tolerance:                  0.100000E-07
Memory for A and Hxc:        Direct Updating Without Saving
Non-Adiabatic Coupling:      Yes

--------------------------------------------------------------------------------

***  Geometry step: 0

  iSCC       reks energy        Diff energy         x_a       SCC error   
    1       -6.2619390504       0.0000000000     0.999594    1.18967011
    2       -6.2741421708      -0.0122031204     0.999825    0.09119523
    3       -6.2783482720      -0.0042061012     0.999902    0.03863761
    4       -6.2806050258      -0.0022567538     0.999935    0.01861569
    5       -6.2819281194      -0.0013230936     0.999952    0.00917020
    6       -6.2827160460      -0.0007879266     0.999960    0.00819118
    7       -6.2831816211      -0.0004655750     0.999965    0.00690065
    8       -6.2834531381      -0.0002715170     0.999968    0.00558305
    9       -6.2836097150      -0.0001565769     0.999970    0.00439586
   10       -6.2836993646      -0.0000896496     0.999971    0.00339719
   11       -6.2837505433      -0.0000511787     0.999971    0.00259196
   12       -6.2837797808      -0.0000292375     0.999972    0.00196037
   13       -6.2837965445      -0.0000167637     0.999972    0.00147407
   14       -6.2838062121      -0.0000096677     0.999972    0.00110431
   15       -6.2838118283      -0.0000056162     0.999972    0.00082557
   16       -6.2838151176      -0.0000032893     0.999972    0.00063359
   17       -6.2838170607      -0.0000019430     0.999972    0.00051389
   18       -6.2838182182      -0.0000011575     0.999972    0.00041602
   19       -6.2838189133      -0.0000006951     0.999972    0.00033618
   20       -6.2838193339      -0.0000004206     0.999972    0.00027120
   21       -6.2838195901      -0.0000002562     0.999972    0.00021899
   22       -6.2838197471      -0.0000001570     0.999972    0.00017825
   23       -6.2838198438      -0.0000000967     0.999972    0.00014464
   24       -6.2838199037      -0.0000000598     0.999972    0.00011705
   25       -6.2838199408      -0.0000000372     0.999972    0.00009452
   26       -6.2838199640      -0.0000000231     0.999972    0.00007617
   27       -6.2838199784      -0.0000000145     0.999972    0.00006128
   28       -6.2838199875      -0.0000000090     0.999972    0.00004923
   29       -6.2838199931      -0.0000000057     0.999972    0.00003950
   30       -6.2838199967      -0.0000000036     0.999972    0.00003166
   31       -6.2838199989      -0.0000000022     0.999972    0.00002535
   32       -6.2838200003      -0.0000000014     0.999972    0.00002028
   33       -6.2838200012      -0.0000000009     0.999972    0.00001621
   34       -6.2838200018      -0.0000000006     0.999972    0.00001295
   35       -6.2838200021      -0.0000000004     0.999972    0.00001034
   36       -6.2838200024      -0.0000000002     0.999972    0.00000825
   37       -6.2838200025      -0.0000000001     0.999972    0.00000658
   38       -6.2838200026      -0.0000000001     0.999972    0.00000525
   39       -6.2838200026      -0.0000000001     0.999972    0.00000418
   40       -6.2838200027      -0.0000000000     0.999972    0.00000333
   41       -6.2838200027      -0.0000000000     0.999972    0.00000265
   42       -6.2838200027      -0.0000000000     0.999972    0.00000211
   43       -6.2838200027      -0.0000000000     0.999972    0.00000168
   44       -6.2838200027      -0.0000000000     0.999972    0.00000134
   45       -6.2838200027      -0.0000000000     0.999972    0.00000107
   46       -6.2838200027      -0.0000000000     0.999972    0.00000085
  
--------------------------------------------------
 Final SA-REKS(2,2) energy:      -6.28382000
  
 State     Energy      FON(1)    FON(2)   Spin
  PPS   -6.41383287   1.999944  0.000056  0.00
  OSS   -6.15380714   1.000000  1.000000  0.00
 Trip   -6.23194706   1.000000  1.000000  1.00
--------------------------------------------------

 Lagrangian Wab:  -0.00282283 -0.00282273

--------------------------------------------------
 SSR: 2SI-2SA-REKS(2,2) Hamiltonian matrix
               PPS           OSS
   PPS    -6.41383287   -0.00397089
   OSS    -0.00397089   -6.15380714
--------------------------------------------------

----------------------------------------------------------------
 SSR: 2SI-2SA-REKS(2,2) states
                    E_n       C_{PPS}    C_{OSS}
 SSR state  1   -6.41389349  -0.999883  -0.015266
 SSR state  2   -6.15374651   0.015266  -0.999883
----------------------------------------------------------------

 unrelaxed SSR FONs for S0:  1.999711  0.000289

Total Energy:                       -6.4138934923 H         -174.5309 eV
Extrapolated to 0:                  -6.4138934923 H         -174.5309 eV

----------------------------------------------------------------------------------
 Solving CP-REKS equation for  1 state vector...
----------------------------------------------------------------------------------
  CG solver: Constructing Y initial guess
  CG solver: Iteration    1    eps =    0.000047428321
  CG solver: Iteration    2    eps =    0.000009393990
  CG solver: Iteration    3    eps =    0.000000381728
  CG solver: Iteration    4    eps =    0.000000065768
  CG solver: Iteration    5    eps =    0.000000009500
  Convergence reached in CG solver after    5 iterations
  CG solver: Calculating converged R, Z, Q2 matrix
----------------------------------------------------------------------------------

----------------------------------------------------------------------------------
 Solving CP-REKS equation for SI between  1 and  2 state vectors...
----------------------------------------------------------------------------------
  CG solver: Constructing Y initial guess
  CG solver: Iteration    1    eps =    0.000728483735
  CG solver: Iteration    2    eps =    0.000463758631
  CG solver: Iteration    3    eps =    0.000145974833
  CG solver: Iteration    4    eps =    0.000002093368
  CG solver: Iteration    5    eps =    0.000000292898
  CG solver: Iteration    6    eps =    0.000000007586
  Convergence reached in CG solver after    6 iterations
  CG solver: Calculating converged R, Z, Q2 matrix
----------------------------------------------------------------------------------

--------------------------------------------------
 Gradient Information
--------------------------------------------------
           1 st state (SSR)
    -0.00499944    -0.01211345     0.02387335
     0.01880665    -0.00367491    -0.02811293
     0.00706715     0.00024525    -0.00672790
    -0.00051724     0.00740170     0.00279794
    -0.01332099     0.00533001     0.00023908
    -0.00703613     0.00281140     0.00793046

           2 st state (SSR)
     0.00537855    -0.00009932     0.13251966
    -0.01198734     0.00370465    -0.15403979
    -0.00787302     0.00557544     0.01262964
    -0.00154497    -0.00279652    -0.00631194
     0.01011660     0.01003055    -0.00765013
     0.00591017    -0.01641480     0.02285257
--------------------------------------------------
 Coupling Information
--------------------------------------------------
 between  1 and  2 states
--------------------------------------------------
 g vector - difference gradient
    -0.00515376    -0.00589691    -0.05441351
     0.01550689    -0.00386250     0.06303808
     0.00765248    -0.00267825    -0.00967309
     0.00071147     0.00515704     0.00459956
    -0.01198826    -0.00228834     0.00392745
    -0.00672881     0.00956896    -0.00747848

 h vector - derivative coupling
    -0.00123278    -0.00369827     0.00212914
    -0.00336302     0.00559891    -0.00148297
    -0.00585784     0.00038990    -0.00033372
    -0.00646214    -0.00181893    -0.00139114
     0.00864378    -0.00206363     0.00062204
     0.00827200     0.00159203     0.00045665

 G vector - GDV
    -0.00518899    -0.00600707    -0.05432315
     0.01539700    -0.00368978     0.06296343
     0.00747008    -0.00266510    -0.00967877
     0.00051386     0.00509911     0.00455494
    -0.01171880    -0.00235027     0.00394460
    -0.00647315     0.00961310    -0.00746105

 H vector - DCV - non-adiabatic coupling
    -0.00413179    -0.01351746     0.01456597
    -0.01474109     0.02196532    -0.01309533
    -0.02340496     0.00181236    -0.00014709
    -0.02491225    -0.00759386    -0.00588479
     0.03461787    -0.00766033     0.00192911
     0.03257222     0.00499397     0.00263213
--------------------------------------------------


--------------------------------------------------------------------------------
DFTB+ running times                          cpu [s]             wall clock [s]
--------------------------------------------------------------------------------
SCC                                    +     0.02  ( 53.3%)      0.02  ( 48.9%)
Post-SCC processing                    +     0.02  ( 42.7%)      0.02  ( 40.0%)
  Force calculation                          0.02  ( 41.7%)      0.02  ( 35.6%)
--------------------------------------------------------------------------------
Missing                                +     0.00  (  3.9%)      0.01  ( 11.1%)
Total                                  =     0.04  (100.0%)      0.05  (100.0%)
--------------------------------------------------------------------------------
