 Fermi distribution function

Calculation with static geometry


********************************************************************************
 iSCC Total electronic   Diff electronic      SCC error    
   10   -0.53992784E+01   -0.30198066E-12    0.50422656E-07
********************************************************************************

 Total charge:     1.00000000

 Atomic gross charges (e)
 Atom           Charge
    1       0.15513614
    2      -0.04346511
    3       0.19374996
    4       0.27706702
    5       0.26804998
    6       0.14946201

Nr. of electrons (up):     12.00000000
Atom populations (up)
 Atom       Population
    1       3.84486386
    2       5.04346511
    3       0.80625004
    4       0.72293298
    5       0.73195002
    6       0.85053799

l-shell populations (up)
 Atom Sh.   l       Population
    1   1   0       1.32909584
    1   2   1       2.51576802
    2   1   0       1.43690858
    2   2   1       3.60655653
    3   1   0       0.80625004
    4   1   0       0.72293298
    5   1   0       0.73195002
    6   1   0       0.85053799

Orbital populations (up)
 Atom Sh.   l   m       Population  Label
    1   1   0   0       1.32909584  s
    1   2   1  -1       0.59359990  p_y
    1   2   1   0       0.86885879  p_z
    1   2   1   1       1.05330934  p_x
    2   1   0   0       1.43690858  s
    2   2   1  -1       1.31254681  p_y
    2   2   1   0       1.09912819  p_z
    2   2   1   1       1.19488152  p_x
    3   1   0   0       0.80625004  s
    4   1   0   0       0.72293298  s
    5   1   0   0       0.73195002  s
    6   1   0   0       0.85053799  s

Fermi level:                        -0.5007056642 H          -13.6249 eV
Band energy:                        -8.9247529842 H         -242.8549 eV
TS:                                  0.0000000000 H            0.0000 eV
Band free energy (E-TS):            -8.9247529842 H         -242.8549 eV
Extrapolated E(0K):                 -8.9247529842 H         -242.8549 eV
Input / Output electrons (q):     12.0000000000     12.0000000000

Energy H0:                          -5.5329887174 H         -150.5603 eV
Energy SCC:                          0.1337103667 H            3.6384 eV
Total Electronic energy:            -5.3992783506 H         -146.9218 eV
Repulsive energy:                    0.1821803639 H            4.9574 eV
Total energy:                       -5.2170979867 H         -141.9645 eV
Extrapolated to 0:                  -5.2170979867 H         -141.9645 eV
Total Mermin free energy:           -5.2170979867 H         -141.9645 eV
Force related energy:               -5.2170979867 H         -141.9645 eV

SCC converged

Excitation Energy:                   0.1368714089 H            3.7245 eV

Total Forces
    1      0.004180895684      0.006816892572      0.045941920043
    2      0.014611805263     -0.008754387628     -0.050177032049
    3     -0.006531653201      0.003376138710     -0.000728346728
    4     -0.012552467168     -0.001408293559      0.000063172531
    5     -0.001576671911      0.005146473041      0.005089113952
    6      0.001868091334     -0.005176823136     -0.000188827750

Maximal derivative component:        0.501770E-01 au


