    14
  Step:     0            Position(A)                                  Velocity(au)
C        -6.00061530    -0.79368712    -0.14210744     0.00000748     0.00008621     0.00022873
C        -4.67661273    -0.74915540     0.11140105    -0.00019735    -0.00001930    -0.00018651
H        -6.46974689     0.17131220    -0.39627633     0.00010633     0.00009741    -0.00066128
H        -6.66299121    -1.60857854     0.06649551    -0.00014780     0.00104476    -0.00057751
H        -4.12103323    -1.63605330     0.49716077    -0.00015150    -0.00061814     0.00077613
C        -3.91748207     0.45233078    -0.04591676     0.00018701    -0.00001746    -0.00007640
C        -2.54545531     0.53942993     0.20166570     0.00006213    -0.00032570    -0.00000869
H        -4.41380653     1.35599372    -0.49242327    -0.00019941     0.00017518    -0.00004024
H        -2.08638320    -0.37303292     0.50605309     0.00123366    -0.00047319     0.00094216
C        -1.87651809     1.78410824     0.10113087    -0.00028554     0.00005835    -0.00000608
H        -2.46937609     2.69900689    -0.13089646    -0.00058080    -0.00041464     0.00028014
N        -0.51786444     1.71710220     0.12605948     0.00011346     0.00020710    -0.00001240
H         0.00959479     2.59004265     0.22852386     0.00015539     0.00101622     0.00018531
H         0.04068690     0.88792296     0.28827696     0.00070387    -0.00110907    -0.00014907
    14
  Step:     1            Position(A)                                  Velocity(au)
C        -6.00076925    -0.79259428    -0.13962073    -0.00003547     0.00011626     0.00022436
C        -4.67845816    -0.74940418     0.10944383    -0.00013799    -0.00002785    -0.00016983
H        -6.46875192     0.17178002    -0.40369937     0.00007844    -0.00001363    -0.00069271
H        -6.66478395    -1.59801834     0.06004391    -0.00019831     0.00085855    -0.00059266
H        -4.12322604    -1.64225914     0.50534363    -0.00025910    -0.00049679     0.00070873
C        -3.91581769     0.45215557    -0.04688685     0.00011771    -0.00001521    -0.00010094
C        -2.54463036     0.53601928     0.20161697     0.00008986    -0.00030022     0.00000071
H        -4.41573428     1.35695583    -0.49228578    -0.00014668    -0.00000305     0.00006773
H        -2.07169909    -0.37880830     0.51650579     0.00142334    -0.00054586     0.00095460
C        -1.87968836     1.78455282     0.10105028    -0.00029157     0.00002187    -0.00000824
H        -2.47450039     2.69391356    -0.12754957    -0.00036154    -0.00050471     0.00032802
N        -0.51652875     1.71956705     0.12593541     0.00013294     0.00024115    -0.00000940
H         0.01116560     2.60072807     0.23034280     0.00011657     0.00090602     0.00014507
H         0.04785425     0.87544278     0.28672840     0.00056807    -0.00110716    -0.00014534
    14
  Step:     2            Position(A)                                  Velocity(au)
C        -6.00139127    -0.79114370    -0.13719910    -0.00007777     0.00015065     0.00021716
C        -4.67963153    -0.74976466     0.10768566    -0.00007554    -0.00003907    -0.00015050
H        -6.46803079     0.17101394    -0.41143063     0.00005464    -0.00012442    -0.00071842
H        -6.66732951    -1.58979602     0.05352988    -0.00028045     0.00062465    -0.00059069
H        -4.12670163    -1.64692148     0.51266549    -0.00038136    -0.00034238     0.00062140
C        -3.91490695     0.45199800    -0.04812497     0.00004955    -0.00001486    -0.00012503
C        -2.54348956     0.53286194     0.20168125     0.00012017    -0.00027930     0.00001204
H        -4.41701533     1.35592705    -0.49094155    -0.00008500    -0.00018255     0.00017691
H        -2.05524500    -0.38497466     0.52693689     0.00155539    -0.00054402     0.00093681
C        -1.88289675     1.78458677     0.10095050    -0.00029211    -0.00001710    -0.00000953
H        -2.47728553     2.68796545    -0.12372034    -0.00015735    -0.00056641     0.00036721
N        -0.51495615     1.72237792     0.12585383     0.00015570     0.00027034    -0.00000483
H         0.01214488     2.60986351     0.23169745     0.00005266     0.00074195     0.00010136
H         0.05311444     0.86370181     0.28509737     0.00036330    -0.00098402    -0.00016172
    14
  Step:     3            Position(A)                                  Velocity(au)
C        -6.00247061    -0.78929863    -0.13487001    -0.00011891     0.00018719     0.00020784
C        -4.68011073    -0.75025900     0.10615142    -0.00001219    -0.00005168    -0.00012930
H        -6.46755655     0.16905815    -0.41941617     0.00003163    -0.00022744    -0.00074011
H        -6.67091930    -1.58435303     0.04712144    -0.00038183     0.00036042    -0.00057568
H        -4.13156911    -1.64974930     0.51893795    -0.00050894    -0.00016799     0.00051981
C        -3.91473378     0.45183042    -0.04962217    -0.00001681    -0.00001762    -0.00014795
C        -2.54200149     0.52990910     0.20188032     0.00015345    -0.00026242     0.00002529
H        -4.41759372     1.35296213    -0.48841559    -0.00002205    -0.00035080     0.00028040
H        -2.03767194    -0.39070976     0.53700036     0.00162840    -0.00047028     0.00088753
C        -1.88607886     1.78417864     0.10084179    -0.00028647    -0.00005928    -0.00000983
H        -2.47794275     2.68152222    -0.11951625     0.00002381    -0.00059155     0.00039565
N        -0.51312247     1.72548121     0.12582973     0.00017945     0.00029475     0.00000087
H         0.01231769     2.61695976     0.23256027    -0.00002494     0.00054355     0.00005621
H         0.05580220     0.85391538     0.28319040     0.00010789    -0.00076327    -0.00019299
    14
  Step:     4            Position(A)                                  Velocity(au)
C        -6.00399266    -0.78704855    -0.13265227    -0.00015867     0.00022340     0.00019721
C        -4.67989814    -0.75089523     0.10485700     0.00004984    -0.00006437    -0.00010707
H        -6.46733876     0.16603826    -0.42762190     0.00000618    -0.00031556    -0.00075967
H        -6.67568274    -1.58191109     0.04093573    -0.00048629     0.00008740    -0.00055240
H        -4.13783566    -1.65059662     0.52403729    -0.00063262     0.00001303     0.00041005
C        -3.91527467     0.45161245    -0.05136163    -0.00008068    -0.00002461    -0.00016898
C        -2.54013257     0.52712107     0.20223458     0.00018976    -0.00024852     0.00004025
H        -4.41749780     1.34825268    -0.48480717     0.00003446    -0.00049545     0.00037161
H        -2.01962054    -0.39526294     0.54635322     0.00164516    -0.00033392     0.00080826
C        -1.88916375     1.78328987     0.10073538    -0.00027418    -0.00010521    -0.00000910
H        -2.47676474     2.67502423    -0.11506476     0.00017543    -0.00057410     0.00041185
N        -0.51103033     1.72882609     0.12587289     0.00020173     0.00031471     0.00000723
H         0.01159918     2.62175469     0.23292705    -0.00010425     0.00033206     0.00001179
H         0.05547475     0.84700374     0.28087536    -0.00017710    -0.00047338    -0.00023351
    14
  Step:     5            Position(A)                                  Velocity(au)
C        -6.00594172    -0.78441132    -0.13055576    -0.00019699     0.00025674     0.00018604
C        -4.67902036    -0.75166727     0.10380896     0.00010841    -0.00007584    -0.00008469
H        -6.46742136     0.16215470    -0.43603536    -0.00002467    -0.00038248    -0.00077905
H        -6.68155777    -1.58244106     0.03503669    -0.00057653    -0.00017180    -0.00052541
H        -4.14540879    -1.64946424     0.52790867    -0.00074345     0.00018724     0.00029862
C        -3.91649887     0.45129206    -0.05331902    -0.00014145    -0.00003684    -0.00018749
C        -2.53785002     0.52447220     0.20276088     0.00022895    -0.00023625     0.00005653
H        -4.41683979     1.34212318    -0.48028591     0.00007709    -0.00060478     0.00044440
H        -2.00168088    -0.39801485     0.55468257     0.00161146    -0.00014826     0.00070251
C        -1.89207703     1.78187691     0.10064279    -0.00025510    -0.00015517    -0.00000733
H        -2.47410495     2.66896265    -0.11050632     0.00029328    -0.00051136     0.00041506
N        -0.50870934     1.73236599     0.12598782     0.00022013     0.00033064     0.00001377
H         0.01003707     2.62422414     0.23281829    -0.00017336     0.00012912    -0.00002965
H         0.05192769     0.84355923     0.27808194    -0.00047001    -0.00014474    -0.00027779
    14
  Step:     6            Position(A)                                  Velocity(au)
C        -6.00830228    -0.78143186    -0.12858221    -0.00023390     0.00028496     0.00017502
C        -4.67752639    -0.75255444     0.10300434     0.00016160    -0.00008474    -0.00006300
H        -6.46787843     0.15767076    -0.44466506    -0.00006329    -0.00042329    -0.00080006
H        -6.68829554    -1.58566944     0.02944139    -0.00063714    -0.00039673    -0.00049836
H        -4.15410002    -1.64650033     0.53057010    -0.00083286     0.00034116     0.00019230
C        -3.91836926     0.45080654    -0.05546324    -0.00019856    -0.00005521    -0.00020288
C        -2.53512374     0.52195263     0.20347133     0.00027068    -0.00022418     0.00007367
H        -4.41581123     1.33502191    -0.47508508     0.00009896    -0.00066824     0.00049343
H        -1.98436674    -0.39850642     0.56172208     0.00153501     0.00007147     0.00057505
C        -1.89474445     1.77989514     0.10057509    -0.00022940    -0.00020901    -0.00000462
H        -2.47034863     2.66383733    -0.10598449     0.00037610    -0.00040488     0.00040554
N        -0.50621463     1.73605940     0.12617407     0.00023243     0.00034306     0.00002005
H         0.00780661     2.62457949     0.23227843    -0.00022118    -0.00004446    -0.00006604
H         0.04519241     0.84383718     0.27479807    -0.00074955     0.00019164    -0.00032070
    14
  Step:     7            Position(A)                                  Velocity(au)
C        -6.01105882    -0.77817730    -0.12672696    -0.00026934     0.00030635     0.00016461
C        -4.67548513    -0.75352120     0.10243077     0.00020774    -0.00008973    -0.00004285
H        -6.46880601     0.15289438    -0.45353812    -0.00011122    -0.00043499    -0.00082411
H        -6.69549643    -1.59112038     0.02413405    -0.00065697    -0.00057191    -0.00047357
H        -4.16362912    -1.64200063     0.53211562    -0.00089284     0.00046155     0.00009809
C        -3.92084280     0.45008426    -0.05775731    -0.00025148    -0.00008039    -0.00021469
C        -2.53192844     0.51956781     0.20437253     0.00031434    -0.00021104     0.00009114
H        -4.41467485     1.32750421    -0.46949109     0.00009441    -0.00067753     0.00051470
H        -1.96809966    -0.39645123     0.56726300     0.00142471     0.00030940     0.00043146
C        -1.89709563     1.77730438     0.10054178    -0.00019758    -0.00026596    -0.00000116
H        -2.46587696     2.66010514    -0.10163433     0.00042607    -0.00026131     0.00038468
N        -0.50362442     1.73987117     0.12642656     0.00023666     0.00035268     0.00002569
H         0.00519837     2.62325142     0.23137364    -0.00023815    -0.00017017    -0.00009560
H         0.03552976     0.84775174     0.27106601    -0.00099521     0.00050444    -0.00035741
    14
  Step:     8            Position(A)                                  Velocity(au)
C        -6.01419463    -0.77472976    -0.12498114    -0.00030314     0.00031995     0.00015509
C        -4.67298165    -0.75451735     0.10206691     0.00024554    -0.00008953    -0.00002502
H        -6.47031165     0.14815454    -0.46269394    -0.00016889    -0.00041696    -0.00085190
H        -6.70266803    -1.59818099     0.01908119    -0.00063051    -0.00068821    -0.00045200
H        -4.17363251    -1.63640305     0.53271595    -0.00091636     0.00053600     0.00002282
C        -3.92387078     0.44904777    -0.06015994    -0.00029964    -0.00011268    -0.00022263
C        -2.52824702     0.51733580     0.20546508     0.00035895    -0.00019588     0.00010836
H        -4.41374584     1.32019973    -0.46382506     0.00005997    -0.00062818     0.00050623
H        -1.95319852    -0.39173765     0.57116104     0.00129024     0.00054967     0.00027786
C        -1.89906699     1.77407672     0.10054978    -0.00016034    -0.00032450     0.00000277
H        -2.46102757     2.65812072    -0.09756883     0.00044880    -0.00009253     0.00035508
N        -0.50103715     1.74377501     0.12673606     0.00023115     0.00036047     0.00003031
H         0.00259653     2.62085667     0.23018693    -0.00021726    -0.00023353    -0.00011715
H         0.02342020     0.85487282     0.26697897    -0.00118759     0.00076233    -0.00038344
    14
  Step:     9            Position(A)                                  Velocity(au)
C        -6.01769057    -0.77117779    -0.12333411    -0.00033504     0.00032553     0.00014653
C        -4.67011351    -0.75547974     0.10188346     0.00027404    -0.00008313    -0.00001015
H        -6.47250081     0.14377268    -0.47217516    -0.00023546    -0.00037126    -0.00088325
H        -6.70929011    -1.60617623     0.01424571    -0.00055788    -0.00074303    -0.00043352
H        -4.18367626    -1.63027460     0.53261480    -0.00089804     0.00055402    -0.00002743
C        -3.92739796     0.44761916    -0.06262778    -0.00034240    -0.00015178    -0.00022664
C        -2.52407583     0.51528261     0.20674310     0.00040298    -0.00017822     0.00012473
H        -4.41336293     1.31376155    -0.45841628    -0.00000478    -0.00052108     0.00046879
H        -1.93987311    -0.38442609     0.57334165     0.00114184     0.00077672     0.00012085
C        -1.90060347     1.77020529     0.10060244    -0.00011845    -0.00038233     0.00000681
H        -2.45605860     2.65808090    -0.09386628     0.00045262     0.00008526     0.00032029
N        -0.49856762     1.74775706     0.12708971     0.00021465     0.00036772     0.00003364
H         0.00044549     2.61814248     0.22881077    -0.00015519    -0.00022639    -0.00013026
H         0.00954902     0.86442926     0.26267745    -0.00130943     0.00093550    -0.00039480
    14
  Step:    10            Position(A)                                  Velocity(au)
C        -6.02152426    -0.76760820    -0.12177554    -0.00036474     0.00032357     0.00013882
C        -4.66698641    -0.75633600     0.10184490     0.00029270    -0.00007001     0.00000132
H        -6.47546279     0.14003245    -0.48201679    -0.00030877    -0.00030273    -0.00091689
H        -6.71487271    -1.61443628     0.00959714    -0.00044374    -0.00073923    -0.00041727
H        -4.19327887    -1.62428285     0.53211588    -0.00083511     0.00050883    -0.00004835
C        -3.93136144     0.44572734    -0.06511805    -0.00037902    -0.00019664    -0.00022690
C        -2.51943111     0.51343681     0.20819376     0.00044435    -0.00015806     0.00013959
H        -4.41385046     1.30880005    -0.45356940    -0.00009645    -0.00036378     0.00040630
H        -1.92821854    -0.37474546     0.57380491     0.00099025     0.00097525    -0.00003256
C        -1.90165827     1.76571253     0.10069881    -0.00007263    -0.00043654     0.00001056
H        -2.45112570     2.65998587    -0.09056189     0.00044714     0.00025352     0.00028435
N        -0.49634119     1.75181960     0.12747190     0.00018662     0.00037602     0.00003547
H        -0.00079848     2.61590392     0.22733721    -0.00005351    -0.00014905    -0.00013549
H        -0.00522607     0.87533872     0.25834202    -0.00134754     0.00099887    -0.00038842
    14
  Step:    11            Position(A)                                  Velocity(au)
C        -6.02566986    -0.76409916    -0.12029719    -0.00039192     0.00031510     0.00013170
C        -4.66371021    -0.75701126     0.10191243     0.00030131    -0.00005031     0.00000927
H        -6.47925566     0.13714993    -0.49223384    -0.00038539    -0.00021863    -0.00095046
H        -6.71899781    -1.62234838     0.00511705    -0.00029598    -0.00068376    -0.00040205
H        -4.20194599    -1.61914299     0.53155697    -0.00072842     0.00039942    -0.00003856
C        -3.93568984     0.44331719    -0.06759168    -0.00040879    -0.00024543    -0.00022390
C        -2.51435481     0.51182484     0.20979693     0.00048059    -0.00013569     0.00015228
H        -4.41547287     1.30580310    -0.44952760    -0.00020761    -0.00017090     0.00032585
H        -1.91820956    -0.36309062     0.57262944     0.00084664     0.00113031    -0.00017513
C        -1.90219235     1.76065525     0.10083348    -0.00002356    -0.00048395     0.00001363
H        -2.44627657     2.66362704    -0.08764555     0.00044161     0.00039402     0.00025116
N        -0.49448495     1.75598313     0.12786575     0.00014744     0.00038690     0.00003581
H        -0.00072514     2.61488166     0.22584677     0.00008081    -0.00001137    -0.00013437
H        -0.01993107     0.88628151     0.25418008    -0.00129549     0.00093735    -0.00036289
    14
  Step:    12            Position(A)                                  Velocity(au)
C        -6.03009817    -0.76071475    -0.11889427    -0.00041628     0.00030157     0.00012483
C        -4.66039475    -0.75743665     0.10204770     0.00030009    -0.00002505     0.00001394
H        -6.48389400     0.13524950    -0.50280984    -0.00046103    -0.00012798    -0.00098069
H        -6.72134775    -1.62939488     0.00080155    -0.00012439    -0.00058633    -0.00038652
H        -4.20921442    -1.61554478     0.53127234    -0.00058317     0.00023238    -0.00000059
C        -3.94030442     0.44035816    -0.07001627    -0.00043114    -0.00029559    -0.00021833
C        -2.50891739     0.51046829     0.21152522     0.00050913    -0.00011162     0.00016217
H        -4.41839236     1.30506135    -0.44644074    -0.00032761     0.00003718     0.00023683
H        -1.90969660    -0.35001771     0.56997357     0.00072234     0.00122771    -0.00029979
C        -1.90217378     1.75512516     0.10099691     0.00002810    -0.00052159     0.00001567
H        -2.44146459     2.66860575    -0.08506725     0.00044336     0.00049148     0.00022385
N        -0.49311556     1.76028378     0.12825532     0.00009872     0.00040143     0.00003486
H         0.00096932     2.61565510     0.22439764     0.00023566     0.00016773    -0.00012933
H        -0.03356747     0.89584494     0.25040301    -0.00115647     0.00075200    -0.00031925
    14
  Step:    13            Position(A)                                  Velocity(au)
C        -6.03477687    -0.75750167    -0.11756625    -0.00043758     0.00028463     0.00011780
C        -4.65714520    -0.75755923     0.10221744     0.00028967     0.00000390     0.00001600
H        -6.48934154     0.13435015    -0.51368826    -0.00053099    -0.00004044    -0.00100375
H        -6.72171904    -1.63517557    -0.00333871     0.00006038    -0.00045824    -0.00036940
H        -4.21470385    -1.61405932     0.53154415    -0.00040908     0.00002270     0.00005861
C        -3.94512180     0.43685049    -0.07236818    -0.00044578    -0.00034422    -0.00021105
C        -2.50321652     0.50938288     0.21334468     0.00052770    -0.00008638     0.00016871
H        -4.42263991     1.30661657    -0.44434652    -0.00044410     0.00023706     0.00014953
H        -1.90240707    -0.33623211     0.56607099     0.00062815     0.00125480    -0.00040010
C        -1.90157761     1.74924444     0.10117631     0.00008174    -0.00054702     0.00001645
H        -2.43657716     2.67437913    -0.08274835     0.00045680     0.00053559     0.00020439
N        -0.49232533     1.76476521     0.12862834     0.00004325     0.00041968     0.00003307
H         0.00443029     2.61855106     0.22301751     0.00039516     0.00036283    -0.00012332
H        -0.04523109     0.90273303     0.24719593    -0.00094492     0.00046479    -0.00026136
    14
  Step:    14            Position(A)                                  Velocity(au)
C        -6.03967099    -0.75448787    -0.11631719    -0.00045555     0.00026598     0.00011020
C        -4.65405762    -0.75735134     0.10239783     0.00027103     0.00003391     0.00001647
H        -6.49551040     0.13436479    -0.52476884    -0.00059083     0.00003486    -0.00101576
H        -6.72002681    -1.63941983    -0.00727985     0.00024748    -0.00031167    -0.00034958
H        -4.21816384    -1.61504813     0.53255451    -0.00021944    -0.00020744     0.00012828
C        -3.95005672     0.43282779    -0.07463338    -0.00045264    -0.00038831    -0.00020289
C        -2.49737299     0.50857860     0.21521602     0.00053450    -0.00006052     0.00017151
H        -4.42810784     1.31024742    -0.44316944    -0.00054514     0.00040594     0.00007353
H        -1.89595463    -0.32256648     0.56122052     0.00057320     0.00120208    -0.00047111
C        -1.90038556     1.74315801     0.10135682     0.00013676    -0.00055859     0.00001584
H        -2.43147116     2.68032282    -0.08059577     0.00048318     0.00052188     0.00019348
N        -0.49216936     1.76946508     0.12897878    -0.00001518     0.00044043     0.00003109
H         0.00961412     2.62359270     0.22169980     0.00054195     0.00054629    -0.00011938
H        -0.05423930     0.90601314     0.24468521    -0.00068552     0.00011845    -0.00019571
    14
  Step:    15            Position(A)                                  Velocity(au)
C        -6.04474298    -0.75168276    -0.11515550    -0.00046996     0.00024726     0.00010166
C        -4.65121587    -0.75681733     0.10257782     0.00024533     0.00006195     0.00001657
H        -6.50226704     0.13511281    -0.53590985    -0.00063690     0.00009045    -0.00101327
H        -6.71630484    -1.64199391    -0.01098638     0.00042624    -0.00015927    -0.00032605
H        -4.21950447    -1.61859756     0.53435057    -0.00002922    -0.00043192     0.00019556
C        -3.95502424     0.42835551    -0.07680686    -0.00045179    -0.00042519    -0.00019461
C        -2.49152325     0.50805895     0.21709687     0.00052853    -0.00003474     0.00017044
H        -4.43456578     1.31549738    -0.44273792    -0.00062108     0.00052522     0.00001621
H        -1.88986730    -0.30993440     0.55576461     0.00056312     0.00106535    -0.00051028
C        -1.89858576     1.73702423     0.10152277     0.00019258    -0.00055548     0.00001380
H        -2.42600660     2.68579624    -0.07851557     0.00052100     0.00045152     0.00019070
N        -0.49265752     1.77440050     0.12930855    -0.00007241     0.00046135     0.00002965
H         0.01628659     2.63050223     0.22040585     0.00065988     0.00069307    -0.00012011
H        -0.06022812     0.90532432     0.24291448    -0.00040903    -0.00023039    -0.00013015
    14
  Step:    16            Position(A)                                  Velocity(au)
C        -6.04995223    -0.74907868    -0.11409318    -0.00048047     0.00022990     0.00009192
C        -4.64869060    -0.75599596     0.10276035     0.00021372     0.00008501     0.00001752
H        -6.50944379     0.13634348    -0.54693599    -0.00066677     0.00012125    -0.00099378
H        -6.71070193    -1.64290415    -0.01441288     0.00058643    -0.00001385    -0.00029800
H        -4.21880310    -1.62449732     0.53683277     0.00014717    -0.00062505     0.00024776
C        -3.95994058     0.42352590    -0.07889080    -0.00044335    -0.00045276    -0.00018674
C        -2.48581047     0.50781861     0.21894481     0.00050965    -0.00001005     0.00016567
H        -4.44169526     1.32173756    -0.44281492    -0.00066589     0.00058286    -0.00001811
H        -1.88363539    -0.29925989     0.55005725     0.00059811     0.00084813    -0.00051851
C        -1.89617247     1.73100583     0.10165875     0.00024865    -0.00053769     0.00001041
H        -2.42007329     2.69020069    -0.07642375     0.00056667     0.00033051     0.00019479
N        -0.49375352     1.77955798     0.12962746    -0.00012450     0.00047957     0.00002939
H         0.02405028     2.63875494     0.21907222     0.00073626     0.00078468    -0.00012728
H        -0.06318751     0.90097290     0.24183790    -0.00014604    -0.00052336    -0.00007226
    14
  Step:    17            Position(A)                                  Velocity(au)
C        -6.05525426    -0.74665324    -0.11314467    -0.00048671     0.00021514     0.00008080
C        -4.64654035    -0.75495756     0.10296106     0.00017720     0.00010052     0.00002033
H        -6.51685384     0.13776546    -0.55765063    -0.00067939     0.00012496    -0.00095598
H        -6.70347566    -1.64229697    -0.01750578     0.00071853     0.00011199    -0.00026476
H        -4.21628488    -1.63227182     0.53977078     0.00029797    -0.00076590     0.00027463
C        -3.96472336     0.41845048    -0.08089220    -0.00042743    -0.00046963    -0.00017962
C        -2.48037372     0.50783915     0.22072115     0.00047874     0.00001213     0.00015770
H        -4.44913332     1.32824856    -0.44313410    -0.00067740     0.00057430    -0.00002825
H        -1.87678257    -0.29137985     0.54442128     0.00067132     0.00056337    -0.00050072
C        -1.89314597     1.72526134     0.10175057     0.00030442    -0.00050592     0.00000582
H        -2.41360956     2.69302687    -0.07425406     0.00061529     0.00016856     0.00020395
N        -0.49538120     1.78489193     0.12995157    -0.00016832     0.00049246     0.00003076
H         0.03239360     2.64766855     0.21762127     0.00076328     0.00081130    -0.00014171
H        -0.06342305     0.89387490     0.24133358     0.00007888    -0.00071326    -0.00002772
    14
  Step:    18            Position(A)                                  Velocity(au)
C        -6.06060002    -0.74437211    -0.11232552    -0.00048824     0.00020391     0.00006828
C        -4.64481393    -0.75379684     0.10320506     0.00013653     0.00010669     0.00002567
H        -6.52430669     0.13907722    -0.56784991    -0.00067512     0.00010196    -0.00089990
H        -6.69498270    -1.64045413    -0.02020493     0.00081415     0.00020638    -0.00022581
H        -4.21228451    -1.64125287     0.54284084     0.00041527    -0.00084118     0.00026987
C        -3.96929146     0.41325181    -0.08282039    -0.00040418    -0.00047513    -0.00017338
C        -2.47533713     0.50808395     0.22239483     0.00043761     0.00002997     0.00014738
H        -4.45651472     1.33430154    -0.44343302    -0.00065686     0.00050169    -0.00001573
H        -1.86894907    -0.28693509     0.53910308     0.00076872     0.00023325    -0.00046554
C        -1.88951271     1.71993778     0.10178601     0.00035927    -0.00046155     0.00000022
H        -2.40661263     2.69388837    -0.07196207     0.00066135    -0.00002218     0.00021604
N        -0.49743584     1.79033156     0.13030037    -0.00020186     0.00049827     0.00003393
H         0.04074849     2.65650364     0.21597211     0.00073850     0.00077197    -0.00016323
H        -0.06146186     0.88536887     0.24123142     0.00025081    -0.00077273     0.00000057
    14
  Step:    19            Position(A)                                  Velocity(au)
C        -6.06593547    -0.74219222    -0.11165094    -0.00048462     0.00019685     0.00005445
C        -4.64355347    -0.75262360     0.10352274     0.00009220     0.00010260     0.00003384
H        -6.53162345     0.13999595    -0.57733773    -0.00065560     0.00005506    -0.00082687
H        -6.68566457    -1.63778208    -0.02244585     0.00086654     0.00025896    -0.00018088
H        -4.20720006    -1.65067435     0.54567460     0.00049531    -0.00084620     0.00023154
C        -3.97356548     0.40805606    -0.08468530    -0.00037378    -0.00046927    -0.00016800
C        -2.47080011     0.50849480     0.22394536     0.00038881     0.00004148     0.00013572
H        -4.46350343     1.33922389    -0.44347825    -0.00060801     0.00037243     0.00001602
H        -1.85996535    -0.28627696     0.53423663     0.00087082    -0.00011327    -0.00042402
C        -1.88528635     1.71516407     0.10175531     0.00041250    -0.00040646    -0.00000615
H        -2.39914127     2.69254173    -0.06952779     0.00069921    -0.00022805     0.00022884
N        -0.49979723     1.79579246     0.13069388    -0.00022422     0.00049626     0.00003884
H         0.04854963     2.66455684     0.21405020     0.00066441     0.00067340    -0.00019098
H        -0.05793611     0.87697005     0.24134607     0.00036487    -0.00069598     0.00001247
    14
  Step:    20            Position(A)                                  Velocity(au)
C        -6.07120194    -0.74006561    -0.11113440    -0.00047550     0.00019417     0.00003952
C        -4.64279685    -0.75155217     0.10394536     0.00004456     0.00008829     0.00004475
H        -6.53864922     0.14028167    -0.58593923    -0.00062345    -0.00001099    -0.00073934
H        -6.67602552    -1.63478886    -0.02416210     0.00087147     0.00026231    -0.00012996
H        -4.20144871    -1.65976521     0.54790619     0.00053785    -0.00078380     0.00016152
C        -3.97746857     0.40298573    -0.08649578    -0.00033653    -0.00045265    -0.00016333
C        -2.46683109     0.50899134     0.22536397     0.00033525     0.00004482     0.00012374
H        -4.46981610     1.34244908    -0.44308246    -0.00053620     0.00019757     0.00006241
H        -1.84989816    -0.28941315     0.52982689     0.00095604    -0.00044508    -0.00038750
C        -1.88048855     1.71104575     0.10165157     0.00046334    -0.00034299    -0.00001299
H        -2.39131606     2.68889924    -0.06695570     0.00072333    -0.00043456     0.00024014
N        -0.50234105     1.80118817     0.13115016    -0.00023542     0.00048665     0.00004525