|===============================================================================
|
|  DFTB+ release 20.1
|
|  Copyright (C) 2006 - 2020  DFTB+ developers group
|
|===============================================================================
|
|  When publishing results obtained with DFTB+, please cite the following
|  reference:
|
|  * DFTB+, a software package for efficient approximate density functional
|    theory based atomistic simulations, J. Chem. Phys. 152, 124101 (2020).
|    [doi: 10.1063/1.5143190]
|
|  You should also cite additional publications crediting the parametrization
|  data you use. Please consult the documentation of the SK-files for the
|  references.
|
|===============================================================================

Reading input file 'dftb_in.hsd'
Parser version: 8

--------------------------------------------------------------------------------
Reading SK-files:
Done.


Processed input in HSD format written to 'dftb_pin.hsd'

Starting initialization...
--------------------------------------------------------------------------------
OpenMP threads:              1
Chosen random seed:          451679565
Mode:                        Static calculation
Self consistent charges:     Yes
SCC-tolerance:                 0.100000E-05
Max. scc iterations:                   1000
Shell resolved Hubbard:      No
Spin polarisation:           No
Nr. of up electrons:             6.000000
Nr. of down electrons:           6.000000
Periodic boundaries:         No
Electronic solver:           Relatively robust
Maximal SCC-cycles:                    1000
Initial charges:             Set automatically (system chrg:   0.100E+01)
Included shells:             C:  s, p
                             N:  s, p
                             H:  s
Spin coupling constants:     C   1(s)-1(s):  -0.455900E-01
                             C   1(s)-2(p):  -0.293000E-01
                             C   2(p)-1(s):  -0.293000E-01
                             C   2(p)-2(p):  -0.275500E-01
                             N   1(s)-1(s):  -0.468700E-01
                             N   1(s)-2(p):  -0.317000E-01
                             N   2(p)-1(s):  -0.317000E-01
                             N   2(p)-2(p):  -0.307200E-01
                             H   1(s)-1(s):  -0.792500E-01
Range separated hybrid:      Yes
  Screening parameter omega:   0.300000E+00
  Range separated algorithm:   MatrixBased
Extra options:
                             Mulliken analysis
                             Force calculation
Force type                   original
                             Eigenvector printing


REKS Calcuation:             Yes
SSR(2,2) Calcuation:         Yes
Energy Functional:           (PPS+OSS)/2
Number of Core Orbitals:                  5
Number of Active Orbitals:                2
Number of Basis:                         12
Number of States:                         2
State-Averaging Weight:          0.500000
                                 0.500000
State of Interest:                        1
Initial Guess:               Diagonalize H0 matrix
Newton-Raphson for FON opt:  Yes
NR max. Iterations:                      50
Level Shifting:              Yes
Shift Value:                     0.300000
W Scale Factor:              C  =    3.200000
                             N  =    3.200000
                             H  =    3.200000
Transition Dipole:           No
Gradient of Microstate:      No
CP-REKS Solver:              Preconditioned Conjugate-Gradient
CG max. Iterations:                     100
CG Tolerance:                  0.100000E-07
Memory for A and Hxc:        Direct Updating Without Saving
Non-Adiabatic Coupling:      Yes

--------------------------------------------------------------------------------

***  Geometry step: 0

  iSCC       reks energy        Diff energy         x_a       SCC error   
    1       -6.1475534439       0.0000000000     0.999581    0.79643441
    2       -6.1609590355      -0.0134055916     1.000000    0.08231002
    3       -6.1645630182      -0.0036039827     1.000000    0.03600619
    4       -6.1656184359      -0.0010554178     1.000000    0.01702755
    5       -6.1659932166      -0.0003747807     1.000000    0.01046628
    6       -6.1661356176      -0.0001424010     1.000000    0.00648883
    7       -6.1661926150      -0.0000569974     1.000000    0.00407661
    8       -6.1662164332      -0.0000238182     1.000000    0.00259227
    9       -6.1662267627      -0.0000103295     1.000000    0.00166647
   10       -6.1662313932      -0.0000046305     1.000000    0.00108167
   11       -6.1662335327      -0.0000021395     1.000000    0.00070800
   12       -6.1662345494      -0.0000010166     1.000000    0.00046677
   13       -6.1662350452      -0.0000004958     1.000000    0.00030964
   14       -6.1662352928      -0.0000002477     1.000000    0.00020648
   15       -6.1662354193      -0.0000001265     1.000000    0.00013830
   16       -6.1662354851      -0.0000000659     1.000000    0.00009298
   17       -6.1662355200      -0.0000000349     1.000000    0.00006533
   18       -6.1662355388      -0.0000000188     1.000000    0.00004850
   19       -6.1662355491      -0.0000000103     1.000000    0.00003612
   20       -6.1662355548      -0.0000000057     1.000000    0.00002698
   21       -6.1662355579      -0.0000000032     1.000000    0.00002020
   22       -6.1662355597      -0.0000000018     1.000000    0.00001516
   23       -6.1662355607      -0.0000000010     1.000000    0.00001140
   24       -6.1662355613      -0.0000000006     1.000000    0.00000859
   25       -6.1662355616      -0.0000000003     1.000000    0.00000648
   26       -6.1662355618      -0.0000000002     1.000000    0.00000489
   27       -6.1662355619      -0.0000000001     1.000000    0.00000370
   28       -6.1662355620      -0.0000000001     1.000000    0.00000280
   29       -6.1662355620      -0.0000000000     1.000000    0.00000212
   30       -6.1662355621      -0.0000000000     1.000000    0.00000161
   31       -6.1662355621      -0.0000000000     1.000000    0.00000122
   32       -6.1662355621      -0.0000000000     1.000000    0.00000093
  
--------------------------------------------------
 Final SA-REKS(2,2) energy:      -6.16623556
  
 State     Energy      FON(1)    FON(2)   Spin
  PPS   -6.14463778   2.000000  0.000000  0.00
  OSS   -6.18783335   1.000000  1.000000  0.00
 Trip   -6.19553733   1.000000  1.000000  1.00
--------------------------------------------------

 Lagrangian Wab:   0.02078943  0.02078945

--------------------------------------------------
 SSR: 2SI-2SA-REKS(2,2) Hamiltonian matrix
               PPS           OSS
   PPS    -6.14463778    0.02940051
   OSS     0.02940051   -6.18783335
--------------------------------------------------

----------------------------------------------------------------
 SSR: 2SI-2SA-REKS(2,2) states
                    E_n       C_{PPS}    C_{OSS}
 SSR state  1   -6.20271643  -0.451647   0.892197
 SSR state  2   -6.12975469  -0.892197  -0.451647
----------------------------------------------------------------

 unrelaxed SSR FONs for S0:  1.203985  0.796015

Total Energy:                       -6.2027164349 H         -168.7845 eV
Extrapolated to 0:                  -6.2027164349 H         -168.7845 eV

----------------------------------------------------------------------------------
 Solving CP-REKS equation for  1 state vector...
----------------------------------------------------------------------------------
  CG solver: Constructing Y initial guess
  CG solver: Iteration    1    eps =    0.000603260334
  CG solver: Iteration    2    eps =    0.000014305739
  CG solver: Iteration    3    eps =    0.000001071944
  CG solver: Iteration    4    eps =    0.000000039765
  CG solver: Iteration    5    eps =    0.000000003159
  Convergence reached in CG solver after    5 iterations
  CG solver: Calculating converged R, Z, Q2 matrix
----------------------------------------------------------------------------------

----------------------------------------------------------------------------------
 Solving CP-REKS equation for SI between  1 and  2 state vectors...
----------------------------------------------------------------------------------
  CG solver: Constructing Y initial guess
  CG solver: Iteration    1    eps =    0.000821253541
  CG solver: Iteration    2    eps =    0.000103036773
  CG solver: Iteration    3    eps =    0.000003054265
  CG solver: Iteration    4    eps =    0.000000103999
  CG solver: Iteration    5    eps =    0.000000006614
  Convergence reached in CG solver after    5 iterations
  CG solver: Calculating converged R, Z, Q2 matrix
----------------------------------------------------------------------------------

--------------------------------------------------
 Gradient Information
--------------------------------------------------
           1 st state (SSR)
    -0.04971724    -0.06180616    -0.05250331
    -0.03370843     0.03979845     0.13959674
     0.07100241     0.04007339    -0.02570149
    -0.02150720     0.01561506     0.00099121
     0.06438191    -0.04131475    -0.02334649
    -0.03045146     0.00763400    -0.03903665

           2 st state (SSR)
    -0.04821938    -0.07710561    -0.05406187
    -0.01515516     0.07226586     0.09990490
     0.06945630     0.03233131    -0.01604538
    -0.02231627     0.01418727     0.00908060
     0.04903710    -0.06070866    -0.00872730
    -0.03280259     0.01902984    -0.03015096
--------------------------------------------------
 Coupling Information
--------------------------------------------------
 between  1 and  2 states
--------------------------------------------------
 g vector - difference gradient
     0.00265762    -0.01994275    -0.04102652
     0.00554366     0.01696148     0.01663377
    -0.00332882     0.00476334     0.00527334
    -0.00326328    -0.00489413     0.00737030
    -0.00085937    -0.00050990     0.00663709
    -0.00074981     0.00362195     0.00511202

 h vector - derivative coupling
    -0.00102302     0.00515809     0.02917136
     0.00743827     0.00768317    -0.03684456
     0.00148615    -0.00830246     0.00211695
     0.00189526     0.00270943    -0.00039551
    -0.00888882    -0.01165765     0.00419428
    -0.00090785     0.00440941     0.00175747

 G vector - GDV
    -0.00074893     0.00764973     0.00077928
    -0.00927664    -0.01623370     0.01984592
     0.00077306     0.00387104    -0.00482806
     0.00040454     0.00071390    -0.00404470
     0.00767241     0.00969696    -0.00730960
     0.00117556    -0.00569792    -0.00444285

 H vector - DCV - non-adiabatic coupling
     0.03765641    -0.26213621    -0.68987174
     0.00087776     0.12500870     0.48269833
    -0.04882827     0.11998278     0.04107042
    -0.05142402    -0.07604426     0.08461961
     0.06263378     0.08896095     0.03927801
    -0.00091566     0.00422803     0.04220538
--------------------------------------------------


--------------------------------------------------------------------------------
DFTB+ running times                          cpu [s]             wall clock [s]
--------------------------------------------------------------------------------
Global initialisation                  +     0.00  (  3.8%)      0.01  ( 26.4%)
SCC                                    +     0.02  ( 49.9%)      0.02  ( 37.7%)
Post-SCC processing                    +     0.02  ( 44.8%)      0.02  ( 32.1%)
  Force calculation                          0.02  ( 43.8%)      0.02  ( 30.2%)
--------------------------------------------------------------------------------
Missing                                +     0.00  (  1.5%)      0.00  (  3.8%)
Total                                  =     0.03  (100.0%)      0.05  (100.0%)
--------------------------------------------------------------------------------
