     6
  Step:     0            Position(A)                                  Velocity(au)
C        -0.03336139    -0.01146609     0.04111446     0.00012016     0.00000501     0.00023407
N        -0.04721348    -0.03010105     1.28355120    -0.00003788     0.00004728    -0.00017040
H         0.86919334     0.11370987    -0.52303258    -0.00004430    -0.00017194    -0.00015388
H         0.85391432    -0.19636523     1.87996798     0.00037364    -0.00024222    -0.00005930
H        -0.87155988    -0.12148377     1.75539912    -0.00031636    -0.00028154     0.00007996
H        -1.01085403     0.08928592    -0.54689451    -0.00091844    -0.00002106    -0.00028795
     6
  Step:     1            Position(A)                                  Velocity(au)
C        -0.03213119    -0.01145356     0.04265486     0.00010376    -0.00000252     0.00004291
N        -0.04723666    -0.02954335     1.28254395     0.00002985     0.00005441    -0.00000863
H         0.87002850     0.11227563    -0.52616335     0.00018640    -0.00009151    -0.00041338
H         0.85600168    -0.19894740     1.87810009     0.00000265    -0.00022925    -0.00028368
H        -0.87915704    -0.12518365     1.75928621    -0.00101546    -0.00039076     0.00059704
H        -1.02051668     0.08910240    -0.55014045    -0.00082486    -0.00001461    -0.00029128
     6
  Step:     2            Position(A)                                  Velocity(au)
C        -0.03109147    -0.01152113     0.04205322     0.00008580    -0.00000963    -0.00015273
N        -0.04656039    -0.02891078     1.28336237     0.00008637     0.00006082     0.00016017
H         0.87327126     0.11170798    -0.53207607     0.00038865    -0.00001472    -0.00065620
H         0.85397224    -0.20138059     1.87376202    -0.00036469    -0.00021766    -0.00049978
H        -0.89377496    -0.13003237     1.76846054    -0.00155806    -0.00048608     0.00101989
H        -1.02889943     0.08896639    -0.55326692    -0.00068854    -0.00001199    -0.00026965
     6
  Step:     3            Position(A)                                  Velocity(au)
C        -0.03025414    -0.01166425     0.03931351     0.00006711    -0.00001633    -0.00034312
N        -0.04534717    -0.02821281     1.28604801     0.00012603     0.00006640     0.00032849
H         0.87853088     0.11195361    -0.54051889     0.00055016     0.00005628    -0.00087109
H         0.84802339    -0.20370906     1.86716649    -0.00069875    -0.00021310    -0.00068505
H        -0.91324252    -0.13581756     1.78159828    -0.00188462    -0.00055883     0.00131010
H        -1.03557985     0.08884001    -0.55603951    -0.00051780    -0.00001251    -0.00023007
     6
  Step:     4            Position(A)                                  Velocity(au)
C        -0.02962341    -0.01187832     0.03454679     0.00004832    -0.00002261    -0.00051894
N        -0.04380326    -0.02745822     1.29054875     0.00014619     0.00007140     0.00048728
H         0.88530714     0.11293914    -0.55113273     0.00066335     0.00011995    -0.00104995
H         0.83868582    -0.20604257     1.85877526    -0.00096758    -0.00022215    -0.00081634
H        -0.93500466    -0.14225775     1.79712145    -0.00198180    -0.00060513     0.00145817
H        -1.04022722     0.08869268    -0.55830023    -0.00032125    -0.00001548    -0.00017948
     6
  Step:     5            Position(A)                                  Velocity(au)
C        -0.02919709    -0.01215879     0.02796075     0.00003000    -0.00002848    -0.00067234
N        -0.04214900    -0.02665088     1.29670812     0.00014640     0.00007643     0.00062736
H         0.89304299     0.11457777    -0.56348850     0.00072519     0.00017555    -0.00118797
H         0.82685562    -0.20856907     1.84930743    -0.00113735    -0.00025258    -0.00087070
H        -0.95659828    -0.14905604     1.81349852    -0.00187172    -0.00062549     0.00147702
H        -1.04260780     0.08850132    -0.55996608    -0.00010812    -0.00002033    -0.00012470
     6
  Step:     6            Position(A)                                  Velocity(au)
C        -0.02896700    -0.01250128     0.01983808     0.00001274    -0.00003396    -0.00079771
N        -0.04060047    -0.02578614     1.30427350     0.00012746     0.00008233     0.00074108
H         0.90117197     0.11677972    -0.57712180     0.00073661     0.00022309    -0.00128339
H         0.81380410    -0.21156817     1.83972698    -0.00117609    -0.00031286    -0.00082831
H        -0.97595202    -0.15594151     1.82943412    -0.00159509    -0.00062318     0.00139148
H        -1.04259256     0.08824797    -0.56102819     0.00011148    -0.00002654    -0.00007245
     6
  Step:     7            Position(A)                                  Velocity(au)
C        -0.02891830    -0.01290178     0.01050935    -0.00000279    -0.00003911    -0.00089196
N        -0.03936060    -0.02484965     1.31292061     0.00009098     0.00008994     0.00082348
H         0.90915780     0.11945819    -0.59156519     0.00070149     0.00026303    -0.00133696
H         0.80112643    -0.21541349     1.83118663    -0.00106155    -0.00041062    -0.00067763
H        -0.99149398    -0.16268936     1.84393982    -0.00119726    -0.00060275     0.00122942
H        -1.04016892     0.08792078    -0.56155102     0.00032631    -0.00003352    -0.00002941
     6
  Step:     8            Position(A)                                  Velocity(au)
C        -0.02902810    -0.01335689     0.00032466    -0.00001579    -0.00004399    -0.00095445
N        -0.03861015    -0.02381851     1.32228867     0.00003968     0.00009984     0.00087300
H         0.91651849     0.12253407    -0.60637040     0.00062542     0.00029623    -0.00135111
H         0.79058074    -0.22055121     1.82490242    -0.00079189    -0.00054994    -0.00042182
H        -1.00214428    -0.16912775     1.85633003    -0.00072066    -0.00056900     0.00101688
H        -1.03545398     0.08751456    -0.56167161     0.00052388    -0.00004064    -0.00000213
     6
  Step:     9            Position(A)                                  Velocity(au)
C        -0.02926371    -0.01386406    -0.01037097    -0.00002528    -0.00004868    -0.00098646
N        -0.03849260    -0.02266540     1.33201908    -0.00002207     0.00011216     0.00089142
H         0.92284010     0.12593886    -0.62112321     0.00051489     0.00032371    -0.00132936
H         0.78380234    -0.22744441     1.82195854    -0.00039472    -0.00072839    -0.00008311
H        -1.00725972    -0.17513740     1.86618601    -0.00020280    -0.00052672     0.00077662
H        -1.02870805     0.08703159    -0.56159770     0.00069060    -0.00004720     0.00000309
     6
  Step:    10            Position(A)                                  Velocity(au)
C        -0.02958116    -0.01442183    -0.02125603    -0.00002808    -0.00004809    -0.00107748
N        -0.03909305    -0.02136481     1.34179027    -0.00008875     0.00012875     0.00094987
H         0.92778276     0.12961589    -0.63545261     0.00032325     0.00044165    -0.00118717
H         0.78194549    -0.23648623     1.82308415     0.00003021    -0.00108923     0.00024635
H        -1.00658098    -0.18065067     1.87332007     0.00034890    -0.00035696     0.00053914
H        -1.02034587     0.08648205    -0.56160400     0.00086545    -0.00021164     0.00004134
     6
  Step:    11            Position(A)                                  Velocity(au)
C        -0.02987796    -0.01491616    -0.03394302    -0.00002373    -0.00003993    -0.00124782
N        -0.04043409    -0.01984868     1.35279936    -0.00015440     0.00014492     0.00107012
H         0.92991171     0.13560080    -0.64709474     0.00005851     0.00057629    -0.00093011
H         0.78446318    -0.25127330     1.82734795     0.00040969    -0.00152210     0.00051345
H        -0.99962684    -0.18294656     1.87798079     0.00092071    -0.00011969     0.00029639
H        -1.00977457     0.08240153    -0.56069322     0.00103936    -0.00047258     0.00011870
     6
  Step:    12            Position(A)                                  Velocity(au)
C        -0.03010019    -0.01529539    -0.04855448    -0.00001334    -0.00002897    -0.00140689
N        -0.04247079    -0.01819442     1.36520111    -0.00021080     0.00015647     0.00118591
H         0.92906274     0.14222343    -0.65580053    -0.00020933     0.00061692    -0.00066450
H         0.79090814    -0.26978499     1.83431692     0.00071943    -0.00183176     0.00073153
H        -0.98643878    -0.18326917     1.87980424     0.00144517     0.00004184     0.00005651
H        -0.99760795     0.07614335    -0.55900716     0.00113302    -0.00065615     0.00016126
     6
  Step:    13            Position(A)                                  Velocity(au)
C        -0.03016977    -0.01555002    -0.06472133     0.00000445    -0.00001744    -0.00153053
N        -0.04504574    -0.01642560     1.37874336    -0.00024918     0.00016591     0.00127767
H         0.92533222     0.14909719    -0.66163196    -0.00045827     0.00063201    -0.00041265
H         0.80020203    -0.29134655     1.84335155     0.00091088    -0.00208093     0.00088185
H        -0.96801100    -0.18203133     1.87921712     0.00184736     0.00016653    -0.00012600
H        -0.98498758     0.06804692    -0.55716531     0.00110967    -0.00081540     0.00013983
     6
  Step:    14            Position(A)                                  Velocity(au)
C        -0.03000280    -0.01567693    -0.08203772     0.00002961    -0.00000583    -0.00161764
N        -0.04792207    -0.01456478     1.39315251    -0.00026303     0.00017343     0.00134451
H         0.91903731     0.15604987    -0.66482812    -0.00066762     0.00063677    -0.00019034
H         0.81083535    -0.31530923     1.85360900     0.00095715    -0.00226867     0.00095307
H        -0.94602435    -0.17962607     1.87704768     0.00206270     0.00025140    -0.00021483
H        -0.97333184     0.05830490    -0.55594802     0.00095012    -0.00096020     0.00004421
     6
  Step:    15            Position(A)                                  Velocity(au)
C        -0.02952208    -0.01567749    -0.10011028     0.00006064     0.00000553    -0.00167038
N        -0.05080000    -0.01263142     1.40815717    -0.00024768     0.00017953     0.00138688
H         0.91072682     0.16302766    -0.66579604    -0.00081563     0.00064093    -0.00001265
H         0.82114156    -0.34097796     1.86420170     0.00085506    -0.00239249     0.00094707
H        -0.92288553    -0.17653149     1.87451729     0.00202872     0.00028742    -0.00017694
H        -0.96420199     0.04704064    -0.55619812     0.00065121    -0.00109659    -0.00012565
     6
  Step:    16            Position(A)                                  Velocity(au)
C        -0.02867627    -0.01555606    -0.11858045     0.00009413     0.00001636    -0.00169251
N        -0.05334066    -0.01063718     1.42349314    -0.00020130     0.00018495     0.00140582
H         0.90119376     0.17007135    -0.66510484    -0.00088020     0.00065279     0.00010642
H         0.82954150    -0.36764948     1.87432797     0.00062031    -0.00245405     0.00087519
H        -0.90164212    -0.17333812     1.87317675     0.00170290     0.00026639     0.00000858
H        -0.95908537     0.03431500    -0.55869690     0.00023265    -0.00123036    -0.00035775
     6
  Step:    17            Position(A)                                  Velocity(au)
C        -0.02746292    -0.01531948    -0.13713724     0.00012475     0.00002645    -0.00168866
N        -0.05520374    -0.00858519     1.43891207    -0.00012624     0.00019025     0.00140360
H         0.89147069     0.17730878    -0.66346787    -0.00084138     0.00068000     0.00015547
H         0.83471210    -0.39466510     1.88334806     0.00028046    -0.00245965     0.00075350
H        -0.88563123    -0.17070377     1.87470506     0.00108929     0.00018772     0.00033695
H        -0.95911226     0.02012409    -0.56402459    -0.00026065    -0.00136714    -0.00062856
     6
  Step:    18            Position(A)                                  Velocity(au)
C        -0.02594703    -0.01497731    -0.15552317     0.00014621     0.00003550    -0.00166371
N        -0.05610245    -0.00647509     1.45419955    -0.00003022     0.00019531     0.00138435
H         0.88278686     0.18494759    -0.66170367    -0.00068602     0.00072896     0.00012822
H         0.83567711    -0.42145913     1.89081232    -0.00013146    -0.00241933     0.00059920
H        -0.87781173    -0.16923129     1.88054823     0.00025999     0.00006403     0.00076757
H        -0.96478761     0.00440620    -0.57244795    -0.00076481    -0.00151083    -0.00090747
     6
  Step:    19            Position(A)                                  Velocity(au)
C        -0.02426422    -0.01454275    -0.17353417     0.00015293     0.00004317    -0.00162239
N        -0.05586494    -0.00431248     1.46919743     0.00007433     0.00019923     0.00135384
H         0.87646273     0.19325607    -0.66066274    -0.00041407     0.00080334     0.00002669
H         0.83183619    -0.44759260     1.89645668    -0.00058117    -0.00234581     0.00042848
H        -0.87994355    -0.16930309     1.89149706    -0.00064875    -0.00007866     0.00122788
H        -0.97584401    -0.01292814    -0.58387720    -0.00121127    -0.00166195    -0.00116397
     6
  Step:    20            Position(A)                                  Velocity(au)
C        -0.02260151    -0.01403288    -0.19101599     0.00014188     0.00004918    -0.00156915
N        -0.05447625    -0.00211648     1.48381738     0.00017315     0.00020081     0.00131827
H         0.87372829     0.20252223    -0.66111981    -0.00004431     0.00090218    -0.00013664
H         0.82296288    -0.47277826     1.90018615    -0.00103536    -0.00225387     0.00025596
H        -0.89200443    -0.17095223     1.90741039    -0.00147404    -0.00020784     0.00163438
H        -0.99128645    -0.03195211    -0.59791199    -0.00154321    -0.00181716    -0.00137466
     6
  Step:    21            Position(A)                                  Velocity(au)
C        -0.02116024    -0.01346675    -0.20786237     0.00011371     0.00005356    -0.00150823
N        -0.05207688     0.00008068     1.49803708     0.00025404     0.00019926     0.00128259
H         0.87549326     0.21299294    -0.66365203     0.00038412     0.00101858    -0.00033913
H         0.80918571    -0.49690039     1.90205625    -0.00146277    -0.00216003     0.00009465
H        -0.91219108    -0.17384996     1.92725225    -0.00207978    -0.00029553     0.00192027
H        -1.00960470    -0.05268204    -0.61395056    -0.00172684    -0.00197029    -0.00152695
     6
  Step:    22            Position(A)                                  Velocity(au)
C        -0.02011384    -0.01286125    -0.22401141     0.00007236     0.00005669    -0.00144336
N        -0.04891861     0.00224279     1.51187659     0.00030966     0.00019481     0.00124929
H         0.88213157     0.22480558    -0.66853891     0.00081705     0.00114021    -0.00055189
H         0.79096198    -0.52003297     1.90225673    -0.00183497    -0.00208230    -0.00004393
H        -0.93750365    -0.17741741     1.94941986    -0.00239408    -0.00032641     0.00205315
H        -1.02906448    -0.07505589    -0.63131688    -0.00175348    -0.00211422    -0.00161863
     6
  Step:    23            Position(A)                                  Velocity(au)
C        -0.01957713    -0.01222649    -0.23943861     0.00002369     0.00005934    -0.00137751
N        -0.04530249     0.00434248     1.52536759     0.00033790     0.00018869     0.00121836
H         0.89336790     0.23793723    -0.67572557     0.00119682     0.00125184    -0.00074621
H         0.76904216    -0.54245475     1.90109508    -0.00212774    -0.00203955    -0.00015013
H        -0.96456607    -0.18099073     1.97216875    -0.00241297    -0.00029888     0.00203498
H        -1.04796542    -0.09893475    -0.64936108    -0.00163403    -0.00224273    -0.00165479
     6
  Step:    24            Position(A)                                  Velocity(au)
C        -0.01959556    -0.01156304    -0.25414715    -0.00002635     0.00006236    -0.00131270
N        -0.04152640     0.00637085     1.53853053     0.00034051     0.00018275     0.00118835
H         0.90831436     0.25219187    -0.68486362     0.00147537     0.00133900    -0.00089986
H         0.74441364    -0.56465208     1.89897226    -0.00232348    -0.00204965    -0.00021717
H        -0.99029197    -0.18395598     1.99393885    -0.00217888    -0.00022063     0.00188979
H        -1.06481200    -0.12412000    -0.66751865    -0.00139088    -0.00235140    -0.00164428
     6
  Step:    25            Position(A)                                  Velocity(au)
C        -0.02015357    -0.01086234    -0.26815634    -0.00007305     0.00006644    -0.00124988
N        -0.03785323     0.00834057     1.55136503     0.00032140     0.00017874     0.00115744
H         0.92564438     0.26723031    -0.69541182     0.00162346     0.00139127    -0.00100065
H         0.71821159    -0.58729484     1.89634409    -0.00241490    -0.00212605    -0.00024274
H        -1.01223328    -0.18581751     2.01351147    -0.00175366    -0.00010298     0.00164978
H        -1.07839350    -0.15037616    -0.68533281    -0.00105072    -0.00243783    -0.00159690
     6
  Step:    26            Position(A)                                  Velocity(au)
C        -0.02119365    -0.01010963    -0.28149071    -0.00011350     0.00007198    -0.00118918
N        -0.03449524     0.01028122     1.56385180     0.00028552     0.00017772     0.00112426
H         0.94383071     0.28262855    -0.70675483     0.00163275     0.00140379    -0.00104628
H         0.69158313    -0.61116343     1.89366184    -0.00240853    -0.00227295    -0.00023059
H        -1.02865665    -0.18620894     2.03003096    -0.00119946     0.00004312     0.00134603
H        -1.08779843    -0.17745217    -0.70245384    -0.00063997    -0.00250136    -0.00152191
     6
  Step:    27            Position(A)                                  Velocity(au)
C        -0.02263666    -0.00928769    -0.29417183    -0.00014641     0.00007907    -0.00113008
N        -0.03160694     0.01222855     1.57596034     0.00023836     0.00017959     0.00108817
H         0.96136396     0.29794080    -0.71830119     0.00151172     0.00137683    -0.00104164
H         0.66552036    -0.63702007     1.89129955    -0.00232613    -0.00248076    -0.00019103
H        -1.03847370    -0.18487409     2.04295855    -0.00057036     0.00020879     0.00100481
H        -1.09239406    -0.20509829    -0.71862758    -0.00018292    -0.00254276    -0.00142754
     6
  Step:    28            Position(A)                                  Velocity(au)
C        -0.02439671    -0.00837972    -0.30621340    -0.00017155     0.00008762    -0.00107179
N        -0.02928067     0.01421000     1.58765757     0.00018569     0.00018295     0.00104919
H         0.97690243     0.31274938    -0.72954272     0.00127912     0.00131437    -0.00099544
H         0.64069449    -0.66543484     1.88948270    -0.00220188    -0.00272408    -0.00013963
H        -1.04113442    -0.18164120     2.05201304     0.00008797     0.00038716     0.00064771
H        -1.09180016    -0.23307994    -0.73368391     0.00029861    -0.00256391    -0.00132097
     6
  Step:    29            Position(A)                                  Velocity(au)
C        -0.02638971    -0.00737094    -0.31761922    -0.00018924     0.00009740    -0.00101337
N        -0.02754465     0.01623099     1.59891329     0.00013330     0.00018543     0.00100758
H         0.98934705     0.32669516    -0.74007830     0.00095812     0.00122243    -0.00091751
H         0.61734996    -0.69661444     1.88824492    -0.00207505    -0.00296468    -0.00009383
H        -1.03654908    -0.17640418     2.05712840     0.00073458     0.00057254     0.00029372
H        -1.08586144    -0.26118878    -0.74752625     0.00078485    -0.00256773    -0.00120868
     6
  Step:    30            Position(A)                                  Velocity(au)
C        -0.02853666    -0.00624889    -0.32838272    -0.00019993     0.00010824    -0.00095388
N        -0.02636438     0.01826657     1.60970033     0.00008673     0.00018425     0.00096340
H         0.99786324     0.33949237    -0.74961511     0.00057245     0.00110790    -0.00081729
H         0.59529889    -0.73029291     1.88742991    -0.00198063    -0.00315932    -0.00006880
H        -1.02506401    -0.16911583     2.05843868     0.00132798     0.00075930    -0.00003829
H        -1.07463010    -0.28925396    -0.76012608     0.00125733    -0.00255820    -0.00109681
     6
  Step:    31            Position(A)                                  Velocity(au)
C        -0.03076352    -0.00500289    -0.33848713    -0.00020403     0.00012002    -0.00089240
N        -0.02564729     0.02026186     1.61998948     0.00005101     0.00017710     0.00091607
H         1.00187039     0.35093257    -0.75795805     0.00014454     0.00097789    -0.00070318
H         0.57401979    -0.76573062     1.88673969    -0.00194179    -0.00326957    -0.00007407
H        -1.00749688    -0.15979314     2.05629063     0.00182122     0.00094094    -0.00032733
H        -1.05835484    -0.31715428    -0.77152115     0.00169841    -0.00254050    -0.00099148
     6
  Step:    32            Position(A)                                  Velocity(au)
C        -0.03300027    -0.00362315    -0.34790563    -0.00020187     0.00013271    -0.00082800
N        -0.02524839     0.02214088     1.62974104     0.00003071     0.00016265     0.00086424
H         1.00102522     0.36088562    -0.76499847    -0.00030464     0.00083960    -0.00058266
H         0.55281843    -0.80182092     1.88580946    -0.00196674    -0.00326983    -0.00011229
H        -0.98522141    -0.14853102     2.05127767     0.00215909     0.00110979    -0.00054919
H        -1.03747409    -0.34483226    -0.78181653     0.00209094    -0.00252121    -0.00089898
     6
  Step:    33            Position(A)                                  Velocity(au)
C        -0.03517978    -0.00209962    -0.35660128    -0.00019374     0.00014635    -0.00075976
N        -0.02497537     0.02382013     1.63889627     0.00002986     0.00014081     0.00080595
H         0.99520578     0.36930034    -0.77070492    -0.00075507     0.00070042    -0.00046264
H         0.53099355    -0.83726450     1.88428315    -0.00205059    -0.00315069    -0.00018017
H        -0.96026275    -0.13551443     2.04427612     0.00228059     0.00125786    -0.00067775
H        -1.01261144    -0.37231054    -0.79118810     0.00241875    -0.00250832    -0.00082581
     6
  Step:    34            Position(A)                                  Velocity(au)
C        -0.03723870    -0.00042140    -0.36452689    -0.00018012     0.00016103    -0.00068675
N        -0.02459518     0.02522133     1.64737281     0.00005146     0.00011239     0.00073920
H         0.98450655     0.37620869    -0.77511962    -0.00118680     0.00056833    -0.00034990
H         0.50795780    -0.87074824     1.88186793    -0.00217995    -0.00291757    -0.00027062
H        -0.93532918    -0.12101282     2.03645049     0.00213013     0.00137944    -0.00069011
H        -0.98455927    -0.39970655    -0.79988267     0.00266782    -0.00251096    -0.00077821
     6
  Step:    35            Position(A)                                  Velocity(au)
C        -0.03912026     0.00142324    -0.37162517    -0.00016191     0.00017674    -0.00060807
N        -0.02384956     0.02627896     1.65506774     0.00009631     0.00007860     0.00066273
H         0.96924231     0.38173354    -0.77835976    -0.00157898     0.00045221    -0.00025164
H         0.48330288    -0.90109185     1.87836284    -0.00233779    -0.00258694    -0.00037499
H        -0.91366213    -0.10533659     2.02917868     0.00167929     0.00147490    -0.00057574
H        -0.95424786    -0.42724269    -0.80821298     0.00282848    -0.00253846    -0.00076130
     6
  Step:    36            Position(A)                                  Velocity(au)
C        -0.04078087     0.00344509    -0.37782960    -0.00014075     0.00019320    -0.00052299
N        -0.02248823     0.02694078     1.66187132     0.00016130     0.00004045     0.00057694
H         0.94996334     0.38610164    -0.78062481    -0.00190917     0.00036232    -0.00017590
H         0.45681419    -0.92734240     1.87366430    -0.00250698    -0.00218212    -0.00048473
H        -0.89859144    -0.08874647     2.02385511     0.00095352     0.00155394    -0.00034710
H        -0.92268086    -0.45524015    -0.81653758     0.00289835    -0.00259847    -0.00077759
     6
  Step:    37            Position(A)                                  Velocity(au)
C        -0.04219954     0.00564991    -0.38306651    -0.00011924     0.00020965    -0.00043100
N        -0.02032078     0.02716384     1.66768935     0.00023844    -0.00000133     0.00048430
H         0.92747550     0.38966003    -0.78220782    -0.00215329     0.00031041    -0.00013177
H         0.42845780    -0.94882979     1.86775837    -0.00267223    -0.00173020    -0.00059230
H        -0.89280195    -0.07134128     2.02158526     0.00004796     0.00163446    -0.00004471
H        -0.89084092    -0.48408929    -0.82522422     0.00288493    -0.00269447    -0.00082530
     6
  Step:    38            Position(A)                                  Velocity(au)
C        -0.04338951     0.00803161    -0.38725858    -0.00010090     0.00022464    -0.00033202
N        -0.01727181     0.02691172     1.67246628     0.00031586    -0.00004595     0.00038887
H         0.90285603     0.39289243    -0.78350750    -0.00228709     0.00030926    -0.00012908
H         0.39835410    -0.96519381     1.86070665    -0.00282065    -0.00126026    -0.00069141
H        -0.89754231    -0.05298957     2.02287706    -0.00088591     0.00173573     0.00027008
H        -0.85956753    -0.51418687    -0.83459268     0.00280664    -0.00282303    -0.00089704
     6
  Step:    39            Position(A)                                  Velocity(au)
C        -0.04440699     0.01056429    -0.39033005    -0.00008971     0.00023606    -0.00022647
N        -0.01341067     0.02615858     1.67619662     0.00038100    -0.00009197     0.00029492
H         0.87744105     0.39642568    -0.78503163    -0.00228996     0.00037115    -0.00017702
H         0.36675077    -0.97640034     1.85263244    -0.00294182    -0.00080265    -0.00077692
H        -0.91218299    -0.03336875     2.02749373    -0.00168446     0.00186901     0.00053395
H        -0.82944034    -0.54584846    -0.84484869     0.00269078    -0.00297242    -0.00097960
     6
  Step:    40            Position(A)                                  Velocity(au)
C        -0.04535216     0.01319583    -0.39221307    -0.00008914     0.00024150    -0.00011545
N        -0.00893680     0.02489976     1.67891821     0.00042430    -0.00013697     0.00020547
H         0.85275879     0.40101214    -0.78738021    -0.00215136     0.00050510    -0.00028147
H         0.33399625    -0.98275333     1.84371012    -0.00302752    -0.00038835    -0.00084447
H        -0.93439320    -0.01210144     2.03455819    -0.00222377     0.00203244     0.00070184
H        -0.80070154    -0.57921427    -0.85602334     0.00256856    -0.00312358    -0.00105547
     6
  Step:    41            Position(A)                                  Velocity(au)
C        -0.04635711     0.01584757    -0.39285570    -0.00010092     0.00023892    -0.00000080
N        -0.00412825     0.02316212     1.68069176     0.00044135    -0.00017788     0.00012160
H         0.83037587     0.40747574    -0.79118941    -0.00187874     0.00071285    -0.00044111
H         0.30051804    -0.98489635     1.83415797    -0.00307165    -0.00004811    -0.00089019
H        -0.96083213     0.01109476     2.04284777    -0.00244865     0.00221389     0.00075682
H        -0.77324822    -0.61418283    -0.86793905     0.00246844    -0.00325378    -0.00110566
     6
  Step:    42            Position(A)                                  Velocity(au)
C        -0.04755997     0.01842265    -0.39223057    -0.00012408     0.00022745     0.00011475
N         0.00071851     0.02100832     1.68157836     0.00043243    -0.00021171     0.00004260
H         0.81165780     0.41660712    -0.79703032    -0.00150311     0.00098503    -0.00064356
H         0.26679806    -0.98380577     1.82423550    -0.00307018     0.00018971    -0.00091016
H        -0.98796206     0.03633168     2.05111517    -0.00236811     0.00239882     0.00070718
H        -0.74669971    -0.65039689    -0.88021174     0.00241063    -0.00334180    -0.00111264
     6
  Step:    43            Position(A)                                  Velocity(au)
C        -0.04907157     0.02082338    -0.39034542    -0.00015480     0.00020817     0.00022717
N         0.00533207     0.01853046     1.68162365     0.00040042    -0.00023683    -0.00003336
H         0.79749252     0.42902525    -0.80526845    -0.00107727     0.00129987    -0.00086256
H         0.23335194    -0.98074599     1.81424646    -0.00301851     0.00030407    -0.00089857
H        -1.01263900     0.06357351     2.05831859    -0.00202896     0.00257991     0.00057810
H        -0.72051104    -0.68729110    -0.89228011     0.00240484    -0.00337338    -0.00106033
     6
  Step:    44            Position(A)                                  Velocity(au)
C        -0.05094644     0.02297679    -0.38726071    -0.00018981     0.00018202     0.00033880
N         0.00947856     0.01582720     1.68084854     0.00035711    -0.00024628    -0.00010608
H         0.78809046     0.44504430    -0.81590040    -0.00067885     0.00163635    -0.00109372
H         0.20076230    -0.97715374     1.80457761    -0.00299578     0.00025769    -0.00087687
H        -1.03234941     0.09277213     2.06376214    -0.00150293     0.00271677     0.00038037
H        -0.69408934    -0.72419604    -0.90340844     0.00247683    -0.00335741    -0.00097271
     6