|===============================================================================
|
|  DFTB+ release 20.1
|
|  Copyright (C) 2006 - 2020  DFTB+ developers group
|
|===============================================================================
|
|  When publishing results obtained with DFTB+, please cite the following
|  reference:
|
|  * DFTB+, a software package for efficient approximate density functional
|    theory based atomistic simulations, J. Chem. Phys. 152, 124101 (2020).
|    [doi: 10.1063/1.5143190]
|
|  You should also cite additional publications crediting the parametrization
|  data you use. Please consult the documentation of the SK-files for the
|  references.
|
|===============================================================================

Reading input file 'dftb_in.hsd'
Parser version: 8

--------------------------------------------------------------------------------
Reading SK-files:
Done.


Processed input in HSD format written to 'dftb_pin.hsd'

Starting initialization...
--------------------------------------------------------------------------------
OpenMP threads:              1
Chosen random seed:          509433113
Mode:                        Static calculation
Self consistent charges:     Yes
SCC-tolerance:                 0.100000E-05
Max. scc iterations:                   1000
Shell resolved Hubbard:      No
Spin polarisation:           No
Nr. of up electrons:             6.000000
Nr. of down electrons:           6.000000
Periodic boundaries:         No
Electronic solver:           Relatively robust
Maximal SCC-cycles:                    1000
Initial charges:             Set automatically (system chrg:   0.100E+01)
Included shells:             C:  s, p
                             N:  s, p
                             H:  s
Spin coupling constants:     C   1(s)-1(s):  -0.455900E-01
                             C   1(s)-2(p):  -0.293000E-01
                             C   2(p)-1(s):  -0.293000E-01
                             C   2(p)-2(p):  -0.275500E-01
                             N   1(s)-1(s):  -0.468700E-01
                             N   1(s)-2(p):  -0.317000E-01
                             N   2(p)-1(s):  -0.317000E-01
                             N   2(p)-2(p):  -0.307200E-01
                             H   1(s)-1(s):  -0.792500E-01
Range separated hybrid:      Yes
  Screening parameter omega:   0.300000E+00
  Range separated algorithm:   MatrixBased
Extra options:
                             Mulliken analysis
                             Force calculation
Force type                   original
                             Eigenvector printing


REKS Calcuation:             Yes
SSR(2,2) Calcuation:         Yes
Energy Functional:           (PPS+OSS)/2
Number of Core Orbitals:                  5
Number of Active Orbitals:                2
Number of Basis:                         12
Number of States:                         2
State-Averaging Weight:          0.500000
                                 0.500000
State of Interest:                        1
Initial Guess:               Diagonalize H0 matrix
Newton-Raphson for FON opt:  Yes
NR max. Iterations:                      50
Level Shifting:              Yes
Shift Value:                     0.300000
W Scale Factor:              C  =    3.000000
                             N  =    3.000000
                             H  =    3.000000
Transition Dipole:           No
Gradient of Microstate:      No
CP-REKS Solver:              Preconditioned Conjugate-Gradient
CG max. Iterations:                     100
CG Tolerance:                  0.100000E-07
Memory for A and Hxc:        Direct Updating Without Saving
Non-Adiabatic Coupling:      Yes

--------------------------------------------------------------------------------

***  Geometry step: 0

  iSCC       reks energy        Diff energy         x_a       SCC error   
    1       -6.2556125631       0.0000000000     0.999065    1.18386356
    2       -6.2707812728      -0.0151687097     0.999644    0.11611063
    3       -6.2762036118      -0.0054223390     0.999811    0.05820122
    4       -6.2796239332      -0.0034203214     0.999884    0.03090857
    5       -6.2821908746      -0.0025669414     0.999921    0.01682491
    6       -6.2841858109      -0.0019949364     0.999942    0.01416672
    7       -6.2856971131      -0.0015113022     0.999954    0.01210802
    8       -6.2867885719      -0.0010914588     0.999961    0.01086792
    9       -6.2875380763      -0.0007495043     0.999965    0.00933172
   10       -6.2880306479      -0.0004925717     0.999967    0.00777769
   11       -6.2883434439      -0.0003127960     0.999969    0.00635859
   12       -6.2885372241      -0.0001937803     0.999969    0.00513799
   13       -6.2886553071      -0.0001180830     0.999970    0.00412498
   14       -6.2887265493      -0.0000712422     0.999970    0.00330148
   15       -6.2887693182      -0.0000427689     0.999970    0.00263947
   16       -6.2887949611      -0.0000256430     0.999970    0.00211013
   17       -6.2888103575      -0.0000153964     0.999970    0.00168772
   18       -6.2888196319      -0.0000092744     0.999970    0.00135070
   19       -6.2888252436      -0.0000056117     0.999970    0.00108163
   20       -6.2888286567      -0.0000034131     0.999970    0.00086670
   21       -6.2888307441      -0.0000020873     0.999970    0.00070442
   22       -6.2888320276      -0.0000012835     0.999970    0.00057142
   23       -6.2888328211      -0.0000007935     0.999970    0.00046281
   24       -6.2888333140      -0.0000004929     0.999970    0.00037437
   25       -6.2888336216      -0.0000003076     0.999970    0.00030250
   26       -6.2888338144      -0.0000001927     0.999970    0.00024419
   27       -6.2888339356      -0.0000001212     0.999969    0.00019696
   28       -6.2888340120      -0.0000000764     0.999969    0.00015875
   29       -6.2888340604      -0.0000000483     0.999969    0.00012787
   30       -6.2888340910      -0.0000000306     0.999969    0.00010294
   31       -6.2888341105      -0.0000000195     0.999969    0.00008282
   32       -6.2888341229      -0.0000000124     0.999969    0.00006660
   33       -6.2888341308      -0.0000000079     0.999969    0.00005354
   34       -6.2888341358      -0.0000000050     0.999969    0.00004302
   35       -6.2888341390      -0.0000000032     0.999969    0.00003456
   36       -6.2888341410      -0.0000000021     0.999969    0.00002775
   37       -6.2888341424      -0.0000000013     0.999969    0.00002228
   38       -6.2888341432      -0.0000000008     0.999969    0.00001788
   39       -6.2888341437      -0.0000000005     0.999969    0.00001435
   40       -6.2888341441      -0.0000000003     0.999969    0.00001151
   41       -6.2888341443      -0.0000000002     0.999969    0.00000923
   42       -6.2888341444      -0.0000000001     0.999969    0.00000740
   43       -6.2888341445      -0.0000000001     0.999969    0.00000593
   44       -6.2888341446      -0.0000000001     0.999969    0.00000476
   45       -6.2888341446      -0.0000000000     0.999969    0.00000381
   46       -6.2888341446      -0.0000000000     0.999969    0.00000306
   47       -6.2888341447      -0.0000000000     0.999969    0.00000245
   48       -6.2888341447      -0.0000000000     0.999969    0.00000196
   49       -6.2888341447      -0.0000000000     0.999969    0.00000157
   50       -6.2888341447      -0.0000000000     0.999969    0.00000126
   51       -6.2888341447      -0.0000000000     0.999969    0.00000101
   52       -6.2888341447      -0.0000000000     0.999969    0.00000081
  
--------------------------------------------------
 Final SA-REKS(2,2) energy:      -6.28883414
  
 State     Energy      FON(1)    FON(2)   Spin
  PPS   -6.41827967   1.999939  0.000061  0.00
  OSS   -6.15938862   1.000000  1.000000  0.00
 Trip   -6.23811291   1.000000  1.000000  1.00
--------------------------------------------------

 Lagrangian Wab:   0.00143541  0.00143536

--------------------------------------------------
 SSR: 2SI-2SA-REKS(2,2) Hamiltonian matrix
               PPS           OSS
   PPS    -6.41827967    0.00201871
   OSS     0.00201871   -6.15938862
--------------------------------------------------

----------------------------------------------------------------
 SSR: 2SI-2SA-REKS(2,2) states
                    E_n       C_{PPS}    C_{OSS}
 SSR state  1   -6.41829541  -0.999970   0.007797
 SSR state  2   -6.15937288  -0.007797  -0.999970
----------------------------------------------------------------

 unrelaxed SSR FONs for S0:  1.999878  0.000122

Total Energy:                       -6.4182954143 H         -174.6507 eV
Extrapolated to 0:                  -6.4182954143 H         -174.6507 eV

----------------------------------------------------------------------------------
 Solving CP-REKS equation for  1 state vector...
----------------------------------------------------------------------------------
  CG solver: Constructing Y initial guess
  CG solver: Iteration    1    eps =    0.000033574338
  CG solver: Iteration    2    eps =    0.000002779553
  CG solver: Iteration    3    eps =    0.000000275846
  CG solver: Iteration    4    eps =    0.000000005423
  Convergence reached in CG solver after    4 iterations
  CG solver: Calculating converged R, Z, Q2 matrix
----------------------------------------------------------------------------------

----------------------------------------------------------------------------------
 Solving CP-REKS equation for SI between  1 and  2 state vectors...
----------------------------------------------------------------------------------
  CG solver: Constructing Y initial guess
  CG solver: Iteration    1    eps =    0.000452185022
  CG solver: Iteration    2    eps =    0.000298171271
  CG solver: Iteration    3    eps =    0.000095965718
  CG solver: Iteration    4    eps =    0.000001349438
  CG solver: Iteration    5    eps =    0.000000145886
  CG solver: Iteration    6    eps =    0.000000006627
  Convergence reached in CG solver after    6 iterations
  CG solver: Calculating converged R, Z, Q2 matrix
----------------------------------------------------------------------------------

--------------------------------------------------
 Gradient Information
--------------------------------------------------
           1 st state (SSR)
     0.00006480     0.00028584    -0.01951699
     0.00454966    -0.00596169     0.01784707
    -0.00107663     0.00446451    -0.00132328
    -0.00293197    -0.00196181     0.00253572
    -0.00047218     0.00576900     0.00252934
    -0.00013368    -0.00259585    -0.00207185

           2 st state (SSR)
    -0.00114736    -0.00491638     0.07613951
     0.00496332     0.00815470    -0.09675992
    -0.01550099    -0.00376432     0.01714896
    -0.00916002     0.00287792    -0.00716877
     0.00674432    -0.00416635    -0.00669431
     0.01410073     0.00181444     0.01733453
--------------------------------------------------
 Coupling Information
--------------------------------------------------
 between  1 and  2 states
--------------------------------------------------
 g vector - difference gradient
     0.00059875     0.00260269    -0.04785961
    -0.00022263    -0.00706052     0.05731705
     0.00722237     0.00420642    -0.00923028
     0.00311112    -0.00251953     0.00485787
    -0.00358964     0.00506909     0.00462075
    -0.00711998    -0.00229816    -0.00970578

 h vector - derivative coupling
    -0.00047473     0.00008112    -0.00163782
    -0.00101127    -0.00009416     0.00042231
     0.00059714     0.00586722     0.00044677
    -0.00021074    -0.00637164     0.00032265
     0.00122188     0.00646456     0.00053661
    -0.00012228    -0.00594709    -0.00009053

 G vector - GDV
     0.00060608     0.00260111    -0.04782825
    -0.00020683    -0.00705819     0.05730349
     0.00721218     0.00411442    -0.00923612
     0.00311403    -0.00241987     0.00485225
    -0.00360825     0.00496767     0.00461182
    -0.00711721    -0.00220515    -0.00970319

 H vector - DCV - non-adiabatic coupling
    -0.00179722     0.00046998    -0.00920700
    -0.00391861    -0.00078884     0.00508267
     0.00274094     0.02291069     0.00116940
    -0.00062644    -0.02475701     0.00153853
     0.00450234     0.02526938     0.00235051
    -0.00090101    -0.02310420    -0.00093410
--------------------------------------------------


--------------------------------------------------------------------------------
DFTB+ running times                          cpu [s]             wall clock [s]
--------------------------------------------------------------------------------
SCC                                    +     0.02  ( 70.1%)      0.03  ( 65.0%)
Post-SCC processing                    +     0.01  ( 25.5%)      0.01  ( 25.0%)
--------------------------------------------------------------------------------
Missing                                +     0.00  (  4.5%)      0.00  ( 10.0%)
Total                                  =     0.03  (100.0%)      0.04  (100.0%)
--------------------------------------------------------------------------------
