|===============================================================================
|
|  DFTB+ release 20.1
|
|  Copyright (C) 2006 - 2020  DFTB+ developers group
|
|===============================================================================
|
|  When publishing results obtained with DFTB+, please cite the following
|  reference:
|
|  * DFTB+, a software package for efficient approximate density functional
|    theory based atomistic simulations, J. Chem. Phys. 152, 124101 (2020).
|    [doi: 10.1063/1.5143190]
|
|  You should also cite additional publications crediting the parametrization
|  data you use. Please consult the documentation of the SK-files for the
|  references.
|
|===============================================================================

Reading input file 'dftb_in.hsd'
Parser version: 8

--------------------------------------------------------------------------------
Reading SK-files:
Done.


Processed input in HSD format written to 'dftb_pin.hsd'

Starting initialization...
--------------------------------------------------------------------------------
WARNING!
-> Excited state forces are not implemented yet for fractional occupations, kT=  0.3158E-02K
OpenMP threads:              1
Chosen random seed:          433864035
Mode:                        Static calculation
Self consistent charges:     Yes
SCC-tolerance:                 0.100000E-05
Max. scc iterations:                    100
Shell resolved Hubbard:      No
Spin polarisation:           No
Nr. of up electrons:             6.000000
Nr. of down electrons:           6.000000
Periodic boundaries:         No
Electronic solver:           Relatively robust
Mixer:                       Broyden mixer
Mixing parameter:                  0.200000
Maximal SCC-cycles:                     100
Nr. of chrg. vec. in memory:              0
Electronic temperature:        0.100000E-07 H      0.272114E-06 eV
Initial charges:             Set automatically (system chrg:   0.100E+01)
Included shells:             C:  s, p
                             N:  s, p
                             H:  s
Extra options:
                             Mulliken analysis
                             Force calculation
Force type                   original
                             Eigenvector printing

--------------------------------------------------------------------------------

***  Geometry step: 0

 iSCC Total electronic   Diff electronic      SCC error    
    1   -0.54347575E+01    0.00000000E+00    0.75763202E+00
    2   -0.54390465E+01   -0.42889746E-02    0.52834636E+00
    3   -0.54424989E+01   -0.34524106E-02    0.60060012E-01
    4   -0.54426514E+01   -0.15245898E-03    0.47289585E-01
    5   -0.54427251E+01   -0.73668502E-04    0.80023559E-02
    6   -0.54427255E+01   -0.46801165E-06    0.19419004E-02
    7   -0.54427256E+01   -0.53679578E-07    0.33346114E-04
    8   -0.54427256E+01   -0.59284133E-10    0.34169358E-04
    9   -0.54427256E+01   -0.33139713E-10    0.94159159E-06
>> Charges saved for restart in charges.bin

Total Energy:                       -5.0951892661 H         -138.6472 eV
Extrapolated to 0:                  -5.2154227090 H         -141.9189 eV
Total Mermin free energy:           -5.0951892661 H         -138.6472 eV
Force related energy:               -5.2154227090 H         -141.9189 eV

--------------------------------------------------------------------------------
DFTB+ running times                          cpu [s]             wall clock [s]
--------------------------------------------------------------------------------
SCC                                    +     0.02  ( 56.3%)      0.03  ( 59.6%)
Post-SCC processing                    +     0.01  ( 38.1%)      0.02  ( 31.6%)
--------------------------------------------------------------------------------
Missing                                +     0.00  (  5.6%)      0.00  (  8.8%)
Total                                  =     0.03  (100.0%)      0.06  (100.0%)
--------------------------------------------------------------------------------
