|===============================================================================
|
|  DFTB+ release 20.1
|
|  Copyright (C) 2006 - 2020  DFTB+ developers group
|
|===============================================================================
|
|  When publishing results obtained with DFTB+, please cite the following
|  reference:
|
|  * DFTB+, a software package for efficient approximate density functional
|    theory based atomistic simulations, J. Chem. Phys. 152, 124101 (2020).
|    [doi: 10.1063/1.5143190]
|
|  You should also cite additional publications crediting the parametrization
|  data you use. Please consult the documentation of the SK-files for the
|  references.
|
|===============================================================================

Reading input file 'dftb_in.hsd'
Parser version: 8

--------------------------------------------------------------------------------
Reading SK-files:
Done.


Processed input in HSD format written to 'dftb_pin.hsd'

Starting initialization...
--------------------------------------------------------------------------------
WARNING!
-> Excited state forces are not implemented yet for fractional occupations, kT=  0.3158E-02K
OpenMP threads:              1
Chosen random seed:          433437026
Mode:                        Static calculation
Self consistent charges:     Yes
SCC-tolerance:                 0.100000E-05
Max. scc iterations:                    100
Shell resolved Hubbard:      No
Spin polarisation:           No
Nr. of up electrons:             6.000000
Nr. of down electrons:           6.000000
Periodic boundaries:         No
Electronic solver:           Relatively robust
Mixer:                       Broyden mixer
Mixing parameter:                  0.200000
Maximal SCC-cycles:                     100
Nr. of chrg. vec. in memory:              0
Electronic temperature:        0.100000E-07 H      0.272114E-06 eV
Initial charges:             Set automatically (system chrg:   0.100E+01)
Included shells:             C:  s, p
                             N:  s, p
                             H:  s
Extra options:
                             Mulliken analysis
                             Force calculation
Force type                   original
                             Eigenvector printing

--------------------------------------------------------------------------------

***  Geometry step: 0

 iSCC Total electronic   Diff electronic      SCC error    
    1   -0.52103258E+01    0.00000000E+00    0.11207883E+01
    2   -0.52401995E+01   -0.29873711E-01    0.67695826E+00
    3   -0.52488726E+01   -0.86730499E-02    0.32572283E+00
    4   -0.47950944E+01    0.45377816E+00    0.21115926E+01
    5   -0.52448616E+01   -0.44976717E+00    0.30403638E+00
    6   -0.52550203E+01   -0.10158676E-01    0.22513201E-01
    7   -0.52550510E+01   -0.30770579E-04    0.12953331E-01
    8   -0.52550660E+01   -0.14954842E-04    0.72717683E-02
    9   -0.52550712E+01   -0.52573638E-05    0.16726301E-03
   10   -0.52550710E+01    0.27362134E-06    0.16643207E-02
   11   -0.52550712E+01   -0.27642068E-06    0.18897164E-03
   12   -0.52550712E+01   -0.98392228E-09    0.15648782E-03
   13   -0.52550712E+01   -0.23372859E-08    0.20074084E-06
>> Charges saved for restart in charges.bin

Total Energy:                       -5.0300070127 H         -136.8735 eV
Extrapolated to 0:                  -5.1233674292 H         -139.4139 eV
Total Mermin free energy:           -5.0300070127 H         -136.8735 eV
Force related energy:               -5.1233674292 H         -139.4139 eV

--------------------------------------------------------------------------------
DFTB+ running times                          cpu [s]             wall clock [s]
--------------------------------------------------------------------------------
SCC                                    +     0.02  ( 65.5%)      0.07  ( 73.6%)
Post-SCC processing                    +     0.01  ( 29.7%)      0.02  ( 20.9%)
--------------------------------------------------------------------------------
Missing                                +     0.00  (  4.8%)      0.00  (  5.5%)
Total                                  =     0.04  (100.0%)      0.09  (100.0%)
--------------------------------------------------------------------------------
