     6
  Step:     0            Position(A)                                  Velocity(au)
C        -0.04321474     0.02948403    -0.00433189     0.00001757     0.00005034     0.00003184
N        -0.03270573    -0.06750104     1.31307857     0.00001706     0.00000172    -0.00000138
H         0.92663568    -0.02651915    -0.47480478    -0.00057379    -0.00008745     0.00061453
H         0.79916102    -0.07972058     1.84939783    -0.00038131    -0.00021992    -0.00058713
H        -0.96921837    -0.01897420     1.89154580     0.00035629     0.00008007    -0.00023514
H        -1.00007680     0.04212095    -0.56948045     0.00015242    -0.00039645    -0.00015237
     6
  Step:     1            Position(A)                                  Velocity(au)
C        -0.04313196     0.02978245    -0.00444236     0.00001218     0.00005894    -0.00007184
N        -0.03270394    -0.06750711     1.31332693    -0.00001672    -0.00000384     0.00009172
H         0.92366003    -0.02700197    -0.47166201    -0.00050692    -0.00009010     0.00053004
H         0.79766889    -0.08093595     1.84652610    -0.00015730    -0.00022557    -0.00045860
H        -0.96669770    -0.01856553     1.88991315     0.00056196     0.00006899    -0.00035952
H        -0.99914067     0.03993889    -0.57025310     0.00018947    -0.00040224    -0.00013038
     6
  Step:     2            Position(A)                                  Velocity(au)
C        -0.04308150     0.03012852    -0.00511745     0.00000586     0.00006780    -0.00017442
N        -0.03288858    -0.06754305     1.31408157    -0.00005077    -0.00000920     0.00018366
H         0.92109253    -0.02750439    -0.46900880    -0.00042565    -0.00009470     0.00043655
H         0.79744098    -0.08218722     1.84438300     0.00007780    -0.00023322    -0.00032316
H        -0.96307329    -0.01821978     1.88761442     0.00075860     0.00005723    -0.00047782
H        -0.99800490     0.03772242    -0.57090615     0.00022499    -0.00040942    -0.00010923
     6
  Step:     3            Position(A)                                  Velocity(au)
C        -0.04306796     0.03052344    -0.00634853    -0.00000120     0.00007683    -0.00027511
N        -0.03325876    -0.06760764     1.31533405    -0.00008425    -0.00001433     0.00027380
H         0.91900817    -0.02803687    -0.46689105    -0.00033130    -0.00010112     0.00033512
H         0.79851909    -0.08348479     1.84299435     0.00031730    -0.00024258    -0.00018492
H        -0.95840717    -0.01794004     1.88469121     0.00094158     0.00004501    -0.00058697
H        -0.99668178     0.03546448    -0.57144682     0.00025755    -0.00041766    -0.00008981
     6
  Step:     4            Position(A)                                  Velocity(au)
C        -0.04309466     0.03096784    -0.00812278    -0.00000875     0.00008589    -0.00037300
N        -0.03380892    -0.06769961     1.31707267    -0.00011623    -0.00001922     0.00036142
H         0.91747337    -0.02860904    -0.46534783    -0.00022568    -0.00010917     0.00022720
H         0.80090721    -0.08483726     1.84236284     0.00055390    -0.00025324    -0.00004824
H        -0.95278725    -0.01772804     1.88120220     0.00110564     0.00003261    -0.00068354
H        -0.99519131     0.03315976    -0.57188724     0.00028566    -0.00042658    -0.00007302
     6
  Step:     5            Position(A)                                  Velocity(au)
C        -0.04316349     0.03146161    -0.01042265    -0.00001648     0.00009483    -0.00046705
N        -0.03452833    -0.06781760     1.31928168    -0.00014570    -0.00002385     0.00044557
H         0.91654323    -0.02922931    -0.46440945    -0.00011120    -0.00011859     0.00011463
H         0.80456901    -0.08625075     1.84246744     0.00077983    -0.00026465     0.00008247
H        -0.94633087    -0.01758389     1.87722528     0.00124468     0.00002035    -0.00076360
H        -0.99356171     0.03080520    -0.57224442     0.00030772    -0.00043567    -0.00005978
     6
  Step:     6            Position(A)                                  Velocity(au)
C        -0.04327466     0.03200382    -0.01322500    -0.00002406     0.00010346    -0.00055601
N        -0.03540056    -0.06796018     1.32194022    -0.00017152    -0.00002820     0.00052508
H         0.91625857    -0.02990455    -0.46409555     0.00000914    -0.00012904    -0.00000036
H         0.80942647    -0.08772845     1.84326378     0.00098722    -0.00027624     0.00020292
H        -0.93918983    -0.01750578     1.87286033     0.00135179     0.00000862    -0.00082278
H        -0.99182963     0.02840037    -0.57254026     0.00032216    -0.00044439    -0.00005094
     6
  Step:     7            Position(A)                                  Velocity(au)
C        -0.04342651     0.03259254    -0.01650029    -0.00003114     0.00011158    -0.00063853
N        -0.03640320    -0.06812580     1.32502124    -0.00019259    -0.00003222     0.00059863
H         0.91664311    -0.03063980    -0.46441336     0.00013182    -0.00014014    -0.00011522
H         0.81536015    -0.08927025     1.84468557     0.00116844    -0.00028734     0.00030921
H        -0.93155473    -0.01748969     1.86823158     0.00141969    -0.00000215    -0.00085659
H        -0.99004021     0.02594770    -0.57280125     0.00032745    -0.00045217    -0.00004733
     6
  Step:     8            Position(A)                                  Velocity(au)
C        -0.04361540     0.03322475    -0.02021187    -0.00003734     0.00011898    -0.00071318
N        -0.03750788    -0.06831278     1.32849053    -0.00020785    -0.00003590     0.00066479
H         0.91770092    -0.03143799    -0.46535635     0.00025292    -0.00015148    -0.00022726
H         0.82221161    -0.09087254     1.84664717     0.00131663    -0.00029730     0.00039803
H        -0.92365544    -0.01752930     1.86348739     0.00144158    -0.00001153    -0.00086091
H        -0.98824663     0.02345264    -0.57305812     0.00032224    -0.00045848    -0.00004962
     6
  Step:     9            Position(A)                                  Velocity(au)
C        -0.04383565     0.03389633    -0.02431565    -0.00004229     0.00012544    -0.00077857
N        -0.03868096    -0.06851926     1.33230632    -0.00021646    -0.00003920     0.00072214
H         0.91941473    -0.03229976    -0.46690375     0.00036838    -0.00016260    -0.00033378
H         0.82978837    -0.09252816     1.84904735     0.00142627    -0.00030549     0.00046696
H        -0.91575726    -0.01761606     1.85879730     0.00141183    -0.00001913    -0.00083248
H        -0.98650895     0.02092352    -0.57334496     0.00030552    -0.00046279    -0.00005828
     6
  Step:    10            Position(A)                                  Velocity(au)
C        -0.04407969     0.03460206    -0.02876030    -0.00004567     0.00013079    -0.00083346
N        -0.03988457    -0.06874319     1.33641943    -0.00021784    -0.00004208     0.00076943
H         0.92174562    -0.03322334    -0.46902114     0.00047427    -0.00017308    -0.00043238
H         0.83787160    -0.09422667     1.85177421     0.00149363    -0.00031136     0.00051462
H        -0.90815398    -0.01773934     1.85434700     0.00132681    -0.00002462    -0.00076938
H        -0.98489212     0.01837134    -0.57369805     0.00027675    -0.00046471    -0.00007353
     6
  Step:    11            Position(A)                                  Velocity(au)
C        -0.04433831     0.03533573    -0.03348806    -0.00004725     0.00013488    -0.00087691
N        -0.04107832    -0.06898234     1.34077414    -0.00021177    -0.00004451     0.00080572
H         0.92463425    -0.03420456    -0.47166225     0.00056714    -0.00018250    -0.00052116
H         0.84622622    -0.09595476     1.85471086     0.00151713    -0.00031450     0.00054076
H        -0.90115534    -0.01788698     1.85033004     0.00118574    -0.00002779    -0.00067156
H        -0.98346322     0.01580924    -0.57415420     0.00023601    -0.00046396    -0.00009523
     6
  Step:    12            Position(A)                                  Velocity(au)
C        -0.04460111     0.03609040    -0.03843648    -0.00008559     0.00025126    -0.00165852
N        -0.04222137    -0.06923431     1.34531010    -0.00036241    -0.00008484     0.00151635
H         0.92800371    -0.03523707    -0.47477182     0.00117624    -0.00034781    -0.00109327
H         0.85461216    -0.09769699     1.85774112     0.00273381    -0.00057446     0.00099724
H        -0.89507002    -0.01804602     1.84693678     0.00181007    -0.00005227    -0.00098807
H        -0.98228793     0.01325179    -0.57474885     0.00033597    -0.00084059    -0.00022436
     6
  Step:    13            Position(A)                                  Velocity(au)
C        -0.04508081     0.03747236    -0.04737438    -0.00004526     0.00013019    -0.00082348
N        -0.04416887    -0.06969949     1.35352651    -0.00017673    -0.00004373     0.00076093
H         0.93501041    -0.03720401    -0.48130509     0.00070527    -0.00019028    -0.00066143
H         0.86959832    -0.10084351     1.86327182     0.00139380    -0.00029515     0.00051838
H        -0.88574400    -0.01827834     1.84194488     0.00079898    -0.00001509    -0.00041585
H        -0.98082687     0.00859441    -0.57642697     0.00009718    -0.00044315    -0.00020258
     6
  Step:    14            Position(A)                                  Velocity(au)
C        -0.04531896     0.03819759    -0.05198713    -0.00003906     0.00012843    -0.00082039
N        -0.04507448    -0.06994614     1.35777268    -0.00014484    -0.00004422     0.00075214
H         0.93903957    -0.03827623    -0.48513364     0.00072541    -0.00019202    -0.00070082
H         0.87705597    -0.10246983     1.86605884     0.00125720    -0.00028478     0.00047128
H        -0.88214647    -0.01835188     1.84017812     0.00047373    -0.00001048    -0.00020833
H        -0.98048847     0.00615202    -0.57765859     0.00002182    -0.00042867    -0.00023833
     6
  Step:    15            Position(A)                                  Velocity(au)
C        -0.04551863     0.03891206    -0.05657065    -0.00003158     0.00012617    -0.00081211
N        -0.04579244    -0.07019515     1.36195781    -0.00011027    -0.00004449     0.00073843
H         0.94314206    -0.03935654    -0.48916105     0.00073056    -0.00019287    -0.00073132
H         0.88369112    -0.10403584     1.86855474     0.00110128    -0.00027327     0.00041533
H        -0.88043363    -0.01839584     1.83960956     0.00013289    -0.00000491     0.00000768
H        -0.98058230     0.00378917    -0.57909858    -0.00005603    -0.00041412    -0.00027594
     6
  Step:    16            Position(A)                                  Velocity(au)
C        -0.04567328     0.03961305    -0.06109770    -0.00002313     0.00012368    -0.00080075
N        -0.04631149    -0.07044529     1.36605667    -0.00007462    -0.00004461     0.00072199
H         0.94723523    -0.04043990    -0.49333783     0.00072271    -0.00019318    -0.00075446
H         0.88941060    -0.10553554     1.87071821     0.00093354    -0.00026128     0.00035422
H        -0.88065564    -0.01840693     1.84026431    -0.00020920     0.00000083     0.00022376
H        -0.98111707     0.00150625    -0.58075420    -0.00013446    -0.00040024    -0.00031472
     6
  Step:    17            Position(A)                                  Velocity(au)
C        -0.04577808     0.04029936    -0.06555252    -0.00001396     0.00012118    -0.00078805
N        -0.04662944    -0.07069553     1.37005627    -0.00003929    -0.00004459     0.00070472
H         0.95124859    -0.04152338    -0.49762374     0.00070394    -0.00019328    -0.00077192
H         0.89416254    -0.10696658     1.87252793     0.00076008    -0.00024933     0.00029095
H        -0.88278021    -0.01838658     1.84211947    -0.00053975     0.00000590     0.00043258
H        -0.98209051    -0.00070028    -0.58262871    -0.00021188    -0.00038755    -0.00035406
     6
  Step:    18            Position(A)                                  Velocity(au)
C        -0.04582971     0.04097101    -0.06992892    -0.00000429     0.00011880    -0.00077524
N        -0.04675181    -0.07094502     1.37395401    -0.00000544    -0.00004445     0.00068798
H         0.95512384    -0.04260592    -0.50198826     0.00067600    -0.00019343    -0.00078510
H         0.89792838    -0.10832960     1.87397872     0.00058551    -0.00023777     0.00022786
H        -0.88670432    -0.01834080     1.84511200    -0.00084781     0.00000956     0.00062803
H        -0.98349147    -0.00283679    -0.58472197    -0.00028695    -0.00037629    -0.00039339
     6
  Step:    19            Position(A)                                  Velocity(au)
C        -0.04582613     0.04162874    -0.07422727     0.00000567     0.00011662    -0.00076296
N        -0.04669026    -0.07119294     1.37775465     0.00002602    -0.00004417     0.00067260
H         0.95881291    -0.04368780    -0.50640884     0.00064023    -0.00019375    -0.00079497
H         0.90071425    -0.10962717     1.87507765     0.00041322    -0.00022678     0.00016672
H        -0.89226698    -0.01827961     1.84914699    -0.00112411     0.00001113     0.00080507
H        -0.98530145    -0.00491090    -0.58703062    -0.00035843    -0.00036644    -0.00043202
     6
  Step:    20            Position(A)                                  Velocity(au)
C        -0.04576638     0.04227364    -0.07845139     0.00001575     0.00011461    -0.00075138
N        -0.04646117    -0.07143837     1.38146719     0.00005432    -0.00004370     0.00065890
H         0.96227536    -0.04477011    -0.51086832     0.00059754    -0.00019428    -0.00080204
H         0.90254421    -0.11086286     1.87584099     0.00024592    -0.00021642     0.00010893
H        -0.89926100    -0.01821646     1.85410486    -0.00136097     0.00001007     0.00095957
H        -0.98749524    -0.00693010    -0.58954777    -0.00042502    -0.00035779    -0.00046918
     6
  Step:    21            Position(A)                                  Velocity(au)
C        -0.04565048     0.04290674    -0.08260601     0.00002578     0.00011272    -0.00074037
N        -0.04608453    -0.07168022     1.38510210     0.00007886    -0.00004300     0.00064685
H         0.96547619    -0.04585420    -0.51535247     0.00054867    -0.00019500    -0.00080650
H         0.90345659    -0.11204051     1.87629237     0.00008606    -0.00020666     0.00005577
H        -0.90744338    -0.01816735     1.85984723    -0.00155227     0.00000596     0.00108827
H        -0.99004095    -0.00890061    -0.59226246    -0.00048539    -0.00034997    -0.00050397
     6
  Step:    22            Position(A)                                  Velocity(au)
C        -0.04547939     0.04352876    -0.08669495     0.00003556     0.00011090    -0.00072963
N        -0.04558316    -0.07191717     1.38866940     0.00009915    -0.00004203     0.00063621
H         0.96838449    -0.04694136    -0.51984815     0.00049427    -0.00019588    -0.00080835
H         0.90350245    -0.11316386     1.87646191    -0.00006392    -0.00019745     0.00000841
H        -0.91654459    -0.01815008     1.86622206    -0.00169364    -0.00000143     0.00118887
H        -0.99289976    -0.01082675    -0.59515915    -0.00053817    -0.00034259    -0.00053548
     6
  Step:    23            Position(A)                                  Velocity(au)
C        -0.04525505     0.04414007    -0.09072035     0.00004491     0.00010906    -0.00071883
N        -0.04498190    -0.07214770     1.39217744     0.00011486    -0.00004076     0.00062663
H         0.97097308    -0.04803261    -0.52434225     0.00043506    -0.00019686    -0.00080755
H         0.90274571    -0.11423636     1.87638595    -0.00020149    -0.00018876    -0.00003194
H        -0.92627865    -0.01818331     1.87306889    -0.00178275    -0.00001220     0.00126016
H        -0.99602603    -0.01271061    -0.59821765    -0.00058209    -0.00033527    -0.00056285
     6
  Step:    24            Position(A)                                  Velocity(au)
C        -0.04498035     0.04474061    -0.09468244     0.00005366     0.00010715    -0.00070769
N        -0.04430687    -0.07237014     1.39563237     0.00012581    -0.00003917     0.00061775
H         0.97321878    -0.04912877    -0.52882149     0.00037188    -0.00019791    -0.00080411
H         0.90126357    -0.11526128     1.87610695    -0.00032408    -0.00018058    -0.00006418
H        -0.93635411    -0.01828565     1.88022469    -0.00181946    -0.00002625     0.00130210
H        -0.99936778    -0.01455218    -0.60141340    -0.00061606    -0.00032766    -0.00058533
     6
  Step:    25            Position(A)                                  Velocity(au)
C        -0.04465909     0.04533004    -0.09857983     0.00006165     0.00010512    -0.00069600
N        -0.04358467    -0.07258276     1.39903805     0.00013197    -0.00003726     0.00060920
H         0.97510313    -0.05023058    -0.53327259     0.00030571    -0.00019906    -0.00079812
H         0.89914649    -0.11624181     1.87567315    -0.00042927    -0.00017292    -0.00008727
H        -0.94648530    -0.01847487     1.88752980    -0.00180565    -0.00004338     0.00131574
H        -1.00286787    -0.01634957    -0.60471823    -0.00063927    -0.00031949    -0.00060237
     6
  Step:    26            Position(A)                                  Velocity(au)
C        -0.04429590     0.04590775    -0.10240997     0.00006873     0.00010296    -0.00068367
N        -0.04284162    -0.07278383     1.40239618     0.00013345    -0.00003504     0.00060069
H         0.97661303    -0.05133884    -0.53768283     0.00023763    -0.00020034    -0.00078980
H         0.89649746    -0.11718117     1.87513801    -0.00051491    -0.00016582    -0.00010035
H        -0.95640183    -0.01876729     1.89483302    -0.00174490    -0.00006328     0.00130304
H        -1.00646546    -0.01809938    -0.60810135    -0.00065126    -0.00031053    -0.00061363
     6
  Step:    27            Position(A)                                  Velocity(au)
C        -0.04389611     0.04647303    -0.10616970     0.00007479     0.00010065    -0.00067067
N        -0.04210313    -0.07297172     1.40570674     0.00013048    -0.00003252     0.00059198
H         0.97774125    -0.05245467    -0.54204065     0.00016877    -0.00020184    -0.00077946
H         0.89343016    -0.11808273     1.87455915    -0.00057930    -0.00015933    -0.00010278
H        -0.96585654    -0.01917734     1.90199571    -0.00164200    -0.00008558     0.00126662
H        -1.01009795    -0.01979701    -0.61153052    -0.00065191    -0.00030064    -0.00061900
     6
  Step:    28            Position(A)                                  Velocity(au)
C        -0.04346555     0.04702514    -0.10985565     0.00007977     0.00009821    -0.00065705
N        -0.04139305    -0.07314490     1.40896829     0.00012338    -0.00002975     0.00058291
H         0.97848669    -0.05357967    -0.54633622     0.00010025    -0.00020369    -0.00076750
H         0.89006621    -0.11894998     1.87399698    -0.00062133    -0.00015345    -0.00009421
H        -0.97463098    -0.01971741     1.90889481    -0.00150261    -0.00010993     0.00120956
H        -1.01370288    -0.02143704    -0.61497336    -0.00064147    -0.00028971    -0.00061860
     6
  Step:    29            Position(A)                                  Velocity(au)
C        -0.04301041     0.04756337    -0.11346465     0.00008363     0.00009565    -0.00064291
N        -0.04073327    -0.07330204     1.41217848     0.00011257    -0.00002676     0.00057335
H         0.97885429    -0.05471619    -0.55056187     0.00003315    -0.00020605    -0.00075440
H         0.88653183    -0.11978643     1.87351314    -0.00064055    -0.00014820    -0.00007460
H        -0.98253925    -0.02039783     1.91542484    -0.00133290    -0.00013596     0.00113521
H        -1.01721984    -0.02301351    -0.61839850    -0.00062047    -0.00027767    -0.00061272
     6
  Step:    30            Position(A)                                  Velocity(au)
C        -0.04253703     0.04808713    -0.11699403     0.00008634     0.00009300    -0.00062837
N        -0.04014318    -0.07344201     1.41533436     0.00009851    -0.00002358     0.00056327
H         0.97885479    -0.05586746    -0.55471244    -0.00003152    -0.00020909    -0.00074062
H         0.88295404    -0.12059548     1.87316872    -0.00063718    -0.00014353    -0.00004419
H        -0.98943050    -0.02122698     1.92149924    -0.00113926    -0.00016335     0.00104701
H        -1.02059207    -0.02452005    -0.62177656    -0.00058971    -0.00026447    -0.00060183
     6
  Step:    31            Position(A)                                  Velocity(au)
C        -0.04205177     0.04859596    -0.12044175     0.00008792     0.00009029    -0.00061355
N        -0.03963948    -0.07356389     1.41843272     0.00008171    -0.00002026     0.00055263
H         0.97850426    -0.05703782    -0.55878535    -0.00009288    -0.00021304    -0.00072666
H         0.87945685    -0.12138011     1.87302253    -0.00061214    -0.00013933    -0.00000354
H        -0.99518909    -0.02221156     1.92705035    -0.00092786    -0.00019184     0.00094830
H        -1.02376768    -0.02595002    -0.62508094    -0.00055015    -0.00025006    -0.00058648
     6
  Step:    32            Position(A)                                  Velocity(au)
C        -0.04156088     0.04908959    -0.12380639     0.00008840     0.00008755    -0.00059856
N        -0.03923597    -0.07366699     1.42147030     0.00006269    -0.00001683     0.00054146
H         0.97782350    -0.05823290    -0.56278065    -0.00015013    -0.00021816    -0.00071298
H         0.87615733    -0.12214253     1.87312937    -0.00056702    -0.00013544     0.00004646
H        -0.99973268    -0.02335703     1.93202839    -0.00070438    -0.00022127     0.00084213
H        -1.02670051    -0.02729649    -0.62828837    -0.00050289    -0.00023438    -0.00056731
     6
  Step:    33            Position(A)                                  Velocity(au)
C        -0.04107040     0.04956790    -0.12708702     0.00008782     0.00008480    -0.00058345
N        -0.03894353    -0.07375080     1.42444398     0.00004198    -0.00001333     0.00052975
H         0.97683747    -0.05945986    -0.56670088    -0.00020259    -0.00022475    -0.00070001
H         0.87316173    -0.12288373     1.87353833    -0.00050408    -0.00013156     0.00010466
H        -1.00300917    -0.02466815     1.93639967    -0.00047403    -0.00025157     0.00073124
H        -1.02935079    -0.02855212    -0.63137925    -0.00044909    -0.00021733    -0.00054500
     6
  Step:    34            Position(A)                                  Velocity(au)
C        -0.04058609     0.05003089    -0.13028279     0.00008623     0.00008207    -0.00056820
N        -0.03876999    -0.07381498     1.42735061     0.00002014    -0.00000979     0.00051750
H         0.97557469    -0.06072770    -0.57055089    -0.00024967    -0.00023319    -0.00068814
H         0.87056195    -0.12360288     1.87429117    -0.00042615    -0.00012731     0.00016965
H        -1.00499451    -0.02614946     1.94014531    -0.00024162    -0.00028274     0.00061818
H        -1.03168543    -0.02970890    -0.63433800    -0.00038995    -0.00019876    -0.00052029
     6
  Step:    35            Position(A)                                  Velocity(au)
C        -0.04011341     0.05047871    -0.13339270     0.00008370     0.00007938    -0.00055274
N        -0.03872005    -0.07385939     1.43018700    -0.00000228    -0.00000622     0.00050468
H         0.97406674    -0.06204767    -0.57433761    -0.00029084    -0.00024392    -0.00067772
H         0.86843250    -0.12429660     1.87542104    -0.00033653    -0.00012214     0.00023979
H        -1.00569062    -0.02780588     1.94325994    -0.00001163    -0.00031493     0.00050521
H        -1.03367831    -0.03075789    -0.63715319    -0.00032673    -0.00017843    -0.00049392
     6
  Step:    36            Position(A)                                  Velocity(au)
C        -0.03965748     0.05091162    -0.13641529     0.00008027     0.00007676    -0.00053699
N        -0.03879523    -0.07388404     1.43294984    -0.00002468    -0.00000268     0.00049127
H         0.97234789    -0.06343395    -0.57806991    -0.00032563    -0.00025759    -0.00066908
H         0.86682828    -0.12495799     1.87695156    -0.00023890    -0.00011529     0.00031331
H        -1.00512352    -0.02964353     1.94575048     0.00021175    -0.00034845     0.00039447
H        -1.03531037    -0.03168858    -0.63981786    -0.00026070    -0.00015600    -0.00046674
     6
  Step:    37            Position(A)                                  Velocity(au)
C        -0.03922310     0.05133003    -0.13934870     0.00007600     0.00007422    -0.00052080
N        -0.03899381    -0.07388915     1.43563591    -0.00004650     0.00000080     0.00047725
H         0.97045503    -0.06490473    -0.58175861    -0.00035353    -0.00027507    -0.00066260
H         0.86578279    -0.12557536     1.87889611    -0.00013717    -0.00010572     0.00038836
H        -1.00334204    -0.03167067     1.94763513     0.00042447    -0.00038381     0.00028789
H        -1.03656989    -0.03248815    -0.64232998    -0.00019325    -0.00013093    -0.00043972
     6
  Step:    38            Position(A)                                  Velocity(au)
C        -0.03881478     0.05173454    -0.14218995     0.00007093     0.00007180    -0.00050378
N        -0.03931079    -0.07387515     1.43824159    -0.00006711     0.00000420     0.00046240
H         0.96842794    -0.06648395    -0.58541691    -0.00037387    -0.00029769    -0.00065884
H         0.86530733    -0.12613020     1.88125775    -0.00003534    -0.00009189     0.00046312
H        -1.00041696    -0.03389923     1.94894265     0.00062257    -0.00042187     0.00018734
H        -1.03745310    -0.03314029    -0.64469351    -0.00012592    -0.00010240    -0.00041414
     6
  Step:    39            Position(A)                                  Velocity(au)
C        -0.03843682     0.05212592    -0.14493315     0.00006509     0.00006954    -0.00048507
N        -0.03973778    -0.07384265     1.44076163    -0.00008592     0.00000746     0.00044620
H         0.96631068    -0.06820457    -0.58906189    -0.00038553    -0.00032758    -0.00065887
H         0.86539102    -0.12659399     1.88402975     0.00006268    -0.00007153     0.00053594
H        -0.99644085    -0.03634713     1.94971174     0.00080207    -0.00046404     0.00009457
H        -1.03796567    -0.03362331    -0.64692077    -0.00006076    -0.00006923    -0.00039203
     6
  Step:    40            Position(A)                                  Velocity(au)
C        -0.03809346     0.05250521    -0.14756560     0.00005846     0.00006751    -0.00046254
N        -0.04026300    -0.07379243     1.44318646    -0.00010230     0.00001059     0.00042724
H         0.96415539    -0.07011427    -0.59271862    -0.00038608    -0.00036825    -0.00066519
H         0.86600193    -0.12692290     1.88719715     0.00015330    -0.00004118     0.00060561
H        -0.99152833    -0.03904177     1.94999069     0.00095886    -0.00051230     0.00001136
H        -1.03812650    -0.03390754    -0.64903804    -0.00000109    -0.00002985    -0.00037713
     6
  Step:    41            Position(A)                                  Velocity(au)
C        -0.03778915     0.05287393    -0.15005801     0.00005828     0.00007525    -0.00049295
N        -0.04087118    -0.07372537     1.44549534    -0.00013216     0.00001549     0.00045970
H         0.96203301    -0.07228468    -0.59643199    -0.00042274    -0.00048480    -0.00078174
H         0.86708955    -0.12705022     1.89073977     0.00026702     0.00000347     0.00076749
H        -0.98581701    -0.04202322     1.94983760     0.00124429    -0.00064900    -0.00006881
H        -1.03797777    -0.03395403    -0.65109929     0.00005346     0.00001841    -0.00043096
     6
  Step:    42            Position(A)                                  Velocity(au)
C        -0.03748185     0.05328589    -0.15260148     0.00005296     0.00007325    -0.00043777
N        -0.04164634    -0.07363040     1.44790196    -0.00014607     0.00001863     0.00041744
H         0.95987703    -0.07483074    -0.60096888    -0.00036997    -0.00042907    -0.00083952
H         0.86880109    -0.12723161     1.89514095     0.00034144    -0.00007150     0.00081381
H        -0.97857603    -0.04541428     1.94932140     0.00135503    -0.00057709    -0.00011115
H        -1.03766404    -0.03406409    -0.65358223     0.00007222    -0.00005403    -0.00044752
     6
  Step:    43            Position(A)                                  Velocity(au)
C        -0.03720227     0.05368554    -0.15490869     0.00004791     0.00007088    -0.00040413
N        -0.04248970    -0.07351893     1.45012078    -0.00015618     0.00002146     0.00038944
H         0.95793356    -0.07703905    -0.60573434    -0.00034181    -0.00037263    -0.00086750
H         0.87087290    -0.12784253     1.89975721     0.00039575    -0.00014193     0.00084625
H        -0.97080254    -0.04841763     1.94860595     0.00143313    -0.00051669    -0.00014051
H        -1.03717754    -0.03455271    -0.65605803     0.00011233    -0.00011155    -0.00043436
     6
  Step:    44            Position(A)                                  Velocity(au)
C        -0.03695092     0.05407134    -0.15707963     0.00004270     0.00006836    -0.00038331
N        -0.04337695    -0.07339265     1.45221732    -0.00016176     0.00002401     0.00036970
H         0.95608945    -0.07895982    -0.61058157    -0.00032750    -0.00032661    -0.00087608
H         0.87318634    -0.12880430     1.90451824     0.00042874    -0.00019785     0.00086674
H        -0.96269558    -0.05113968     1.94776445     0.00147380    -0.00047354    -0.00015534
H        -1.03641934    -0.03530021    -0.65839537     0.00016414    -0.00015019    -0.00040521
     6