     6
  Step:   120            Position(A)                                  Velocity(au)
C        -0.03644925     0.04057000    -0.16310688    -0.00004654    -0.00004137     0.00046713
N        -0.04215110    -0.03783559     1.46147188     0.00011622     0.00007562    -0.00040549
H         0.91295311     0.28884910    -0.70781575    -0.00044796     0.00145748     0.00042878
H         0.70194161    -0.69036646     1.88152118    -0.00169466    -0.00161415    -0.00096157
H        -0.89161287     0.20509984     2.00198466     0.00012296     0.00121674     0.00010428
H        -0.91613255    -0.43102358    -0.64917921     0.00095919    -0.00161804     0.00049701
