     6
  Step:     0            Position(A)                                  Velocity(au)
C        -0.04270884     0.00306134     0.02690926    -0.00001941     0.00007685    -0.00020555
N        -0.04895929    -0.04174181     1.29340864     0.00003561    -0.00002210     0.00016992
H         0.94659526     0.00719283    -0.52898716     0.00069048    -0.00036186    -0.00002076
H         0.88374926    -0.15470264     1.84008112    -0.00014114     0.00006632    -0.00015096
H        -0.89805021    -0.09819415     1.82731170    -0.00035172    -0.00011275     0.00048154
H        -0.95595508     0.11950542    -0.54067816    -0.00046113    -0.00020041    -0.00022171
     6
  Step:     1            Position(A)                                  Velocity(au)
C        -0.04277018     0.00351163     0.02539931    -0.00000306     0.00008804    -0.00034679
N        -0.04870610    -0.04185367     1.29466791     0.00005628    -0.00001881     0.00029057
H         0.95027654     0.00509587    -0.52894717     0.00064800    -0.00040526     0.00003600
H         0.88255169    -0.15443660     1.83897980    -0.00029486     0.00003018    -0.00024856
H        -0.90040494    -0.09897556     1.83014587    -0.00050137    -0.00017298     0.00055188
H        -0.95887135     0.11830623    -0.54195740    -0.00059736    -0.00023961    -0.00024481
     6
  Step:     2            Position(A)                                  Velocity(au)
C        -0.04274230     0.00402420     0.02311637     0.00001302     0.00009953    -0.00048820
N        -0.04834373    -0.04194758     1.29658665     0.00007533    -0.00001566     0.00041101
H         0.95368256     0.00276046    -0.52859337     0.00058883    -0.00044830     0.00009305
H         0.88052428    -0.15437250     1.83736263    -0.00044334    -0.00000682    -0.00033768
H        -0.90353382    -0.10008605     1.83334774    -0.00063300    -0.00023223     0.00061600
H        -0.96248853     0.11688480    -0.54335573    -0.00071449    -0.00028101    -0.00026536
     6
  Step:     3            Position(A)                                  Velocity(au)
C        -0.04262774     0.00460016     0.02005978     0.00002844     0.00011085    -0.00062837
N        -0.04788218    -0.04202499     1.29916312     0.00009226    -0.00001294     0.00052994
H         0.95671667     0.00019276    -0.52792944     0.00051253    -0.00048848     0.00014853
H         0.87770289    -0.15451117     1.83528653    -0.00058263    -0.00004268    -0.00041455
H        -0.90732809    -0.10151546     1.83688311    -0.00074287    -0.00028788     0.00067264
H        -0.96668582     0.11523278    -0.54485969    -0.00080790    -0.00032212    -0.00028300
     6
  Step:     4            Position(A)                                  Velocity(au)
C        -0.04243110     0.00523724     0.01624031     0.00004280     0.00012140    -0.00076412
N        -0.04733420    -0.04208920     1.30238553     0.00010648    -0.00001087     0.00064465
H         0.95929097    -0.00258481    -0.52696806     0.00042232    -0.00052318     0.00020077
H         0.87414878    -0.15483956     1.83282635    -0.00070701    -0.00007547    -0.00047607
H        -0.91166280    -0.10323620     1.84070816    -0.00082826    -0.00033711     0.00071938
H        -0.97132910     0.11335997    -0.54645253    -0.00087669    -0.00035994    -0.00029699
     6
  Step:     5            Position(A)                                  Velocity(au)
C        -0.04215882     0.00593013     0.01168881     0.00005578     0.00013070    -0.00089119
N        -0.04671574    -0.04214403     1.30622525     0.00011737    -0.00000941     0.00075157
H         0.96134320    -0.00553865    -0.52572998     0.00032337    -0.00055089     0.00024815
H         0.86995763    -0.15533792     1.83007121    -0.00080964    -0.00010475    -0.00051957
H        -0.91640169    -0.10520854     1.84476390    -0.00088715    -0.00037834     0.00075335
H        -0.97628997     0.11128959    -0.54811321    -0.00092219    -0.00039274    -0.00030662
     6
  Step:     6            Position(A)                                  Velocity(au)
C        -0.04181890     0.00667169     0.00645927     0.00006705     0.00013844    -0.00100511
N        -0.04604606    -0.04219247     1.31063429     0.00012434    -0.00000837     0.00084698
H         0.96284011    -0.00863104    -0.52424457     0.00022098    -0.00057110     0.00028890
H         0.86526275    -0.15598921     1.82712389    -0.00088366    -0.00013131    -0.00054253
H        -0.92139955    -0.10738856     1.84897638    -0.00091812    -0.00041104     0.00077216
H        -0.98145043     0.10904953    -0.54981774    -0.00094598    -0.00041996    -0.00031147
     6
  Step:     7            Position(A)                                  Velocity(au)
C        -0.04142102     0.00745354     0.00062852     0.00007630     0.00014442    -0.00110182
N        -0.04534750    -0.04223614     1.31554545     0.00012692    -0.00000752     0.00092742
H         0.96377490    -0.01182309    -0.52255086     0.00011999    -0.00058366     0.00032123
H         0.86023382    -0.15678281     1.82410113    -0.00092306    -0.00015624    -0.00054276
H        -0.92650471    -0.10973161     1.85326080    -0.00092054    -0.00043513     0.00077442
H        -0.98669953     0.10666836    -0.55154063    -0.00094916    -0.00044151    -0.00031131
     6
  Step:     8            Position(A)                                  Velocity(au)
C        -0.04097650     0.00826625    -0.00570596     0.00008325     0.00014849    -0.00117800
N        -0.04464479    -0.04227545     1.32087399     0.00012482    -0.00000664     0.00099010
H         0.96416494    -0.01507524    -0.52069788     0.00002485    -0.00058858     0.00034343
H         0.85507120    -0.15771427     1.82113126    -0.00092354    -0.00018049    -0.00051890
H        -0.93156333    -0.11219291     1.85752684    -0.00089501    -0.00045070     0.00075991
H        -0.99193019     0.10417478    -0.55325493    -0.00093279    -0.00045741    -0.00030611
     6
  Step:     9            Position(A)                                  Velocity(au)
C        -0.04049814     0.00909958    -0.01242997     0.00008773     0.00015059    -0.00123164
N        -0.04396389    -0.04230976     1.32652102     0.00011805    -0.00000560     0.00103334
H         0.96405037    -0.01834771    -0.51874382    -0.00006044    -0.00058618     0.00035426
H         0.84999613    -0.15878356     1.81834893    -0.00088325    -0.00020470    -0.00047099
H        -0.93642611    -0.11472776     1.86168466    -0.00084363    -0.00045804     0.00072968
H        -0.99703978     0.10159785    -0.55493391    -0.00089850    -0.00046776    -0.00029630
     6
  Step:    10            Position(A)                                  Velocity(au)
C        -0.03999967     0.00994294    -0.01941934     0.00008969     0.00015081    -0.00126252
N        -0.04333040    -0.04233778     1.33237945     0.00010696    -0.00000430     0.00105701
H         0.96349201    -0.02160197    -0.51675345    -0.00013259    -0.00057723     0.00035318
H         0.84523680    -0.15999345     1.81588709    -0.00080343    -0.00022931    -0.00040074
H        -0.94095658    -0.11729280     1.86565127    -0.00077021    -0.00045785     0.00068603
H        -1.00193429     0.09896659    -0.55655402    -0.00084889    -0.00047295    -0.00028281
     6
  Step:    11            Position(A)                                  Velocity(au)
C        -0.03949501     0.01078620    -0.02654993     0.00008928     0.00014942    -0.00127264
N        -0.04276765    -0.04235784     1.33834259     0.00009222    -0.00000271     0.00106289
H         0.96256754    -0.02480343    -0.51479390    -0.00018936    -0.00056311     0.00034053
H         0.84101064    -0.16134819     1.81386713    -0.00068848    -0.00025466    -0.00031149
H        -0.94504010    -0.11984831     1.86935718    -0.00067996    -0.00045140     0.00063239
H        -1.00653376     0.09630838    -0.55809681    -0.00078760    -0.00047382    -0.00026687
     6
  Step:    12            Position(A)                                  Velocity(au)
C        -0.03899719     0.01162075    -0.03370915     0.00008680     0.00014689    -0.00126598
N        -0.04229487    -0.04236817     1.34431409     0.00007474    -0.00000082     0.00105444
H         0.96136580    -0.02792488    -0.51292984    -0.00022980    -0.00054576     0.00031744
H         0.83750620    -0.16285290     1.81238955    -0.00054531    -0.00028110    -0.00020770
H        -0.94859154    -0.12236131     1.87275212    -0.00057888    -0.00044044     0.00057286
H        -1.01077784     0.09364625    -0.55955060    -0.00071890    -0.00047172    -0.00024995
     6
  Step:    13            Position(A)                                  Velocity(au)
C        -0.03851749     0.01244045    -0.04080667     0.00013174     0.00022909    -0.00198820
N        -0.04192600    -0.04236709     1.35021707     0.00008838     0.00000212     0.00165105
H         0.95997962    -0.03094949    -0.51121903    -0.00040502    -0.00084028     0.00045494
H         0.83486969    -0.16451384     1.81152808    -0.00060854    -0.00049252    -0.00014991
H        -0.95155918    -0.12480836     1.87580840    -0.00075329    -0.00068039     0.00081501
H        -1.01462961     0.09099609    -0.56091158    -0.00103105    -0.00074619    -0.00037202
     6
  Step:    14            Position(A)                                  Velocity(au)
C        -0.03780540     0.01368790    -0.05156835     0.00011785     0.00020979    -0.00179408
N        -0.04148707    -0.04234821     1.35917755     0.00006518     0.00000472     0.00149765
H         0.95797275    -0.03555200    -0.50909659    -0.00029284    -0.00077991     0.00029040
H         0.83199860    -0.16726868     1.81107602    -0.00039184    -0.00047822    -0.00000541
H        -0.95549076    -0.12854142     1.88021589    -0.00062806    -0.00063232     0.00073458
H        -1.02040456     0.08695897    -0.56327061    -0.00099725    -0.00067509    -0.00045300
     6
  Step:    15            Position(A)                                  Velocity(au)
C        -0.03717524     0.01482979    -0.06124008     0.00010307     0.00019195    -0.00160598
N        -0.04118367    -0.04231329     1.36727428     0.00004120     0.00000768     0.00134825
H         0.95664432    -0.03983220    -0.50791154    -0.00016914    -0.00072669     0.00012703
H         0.83040689    -0.16996043     1.81146642    -0.00016414    -0.00046942     0.00014301
H        -0.95871241    -0.13201011     1.88417478    -0.00050482    -0.00058743     0.00065769
H        -1.02598761     0.08330724    -0.56607094    -0.00096259    -0.00061041    -0.00052657
     6
  Step:    16            Position(A)                                  Velocity(au)
C        -0.03663132     0.01587427    -0.06986135     0.00008833     0.00017675    -0.00143563
N        -0.04101780    -0.04226079     1.37453490     0.00001743     0.00001090     0.00121293
H         0.95604616    -0.04382937    -0.50764970    -0.00003923    -0.00068491    -0.00003275
H         0.83012893    -0.17261566     1.81270501     0.00006490    -0.00046769     0.00029163
H        -0.96124093    -0.13523264     1.88770738    -0.00038819    -0.00054965     0.00058921
H        -1.03136903     0.08000599    -0.56926851    -0.00093214    -0.00055553    -0.00059636
     6
  Step:    17            Position(A)                                  Velocity(au)
C        -0.03617272     0.01683597    -0.07753467     0.00007383     0.00016418    -0.00128371
N        -0.04098585    -0.04218956     1.38104123    -0.00000563     0.00001433     0.00109254
H         0.95619902    -0.04760599    -0.50828331     0.00009381    -0.00065444    -0.00018901
H         0.83114352    -0.17526877     1.81477644     0.00028908    -0.00047195     0.00043780
H        -0.96311844    -0.13824868     1.89086237    -0.00027868    -0.00051927     0.00052957
H        -1.03656754     0.07700194    -0.57283973    -0.00090563    -0.00050995    -0.00066397
     6
  Step:    18            Position(A)                                  Velocity(au)
C        -0.03579719     0.01772927    -0.08436508     0.00005954     0.00015367    -0.00114625
N        -0.04108144    -0.04209889     1.38687879    -0.00002755     0.00001786     0.00098398
H         0.95710606    -0.05122341    -0.50978521     0.00022700    -0.00063305    -0.00034159
H         0.83339502    -0.17794793     1.81765145     0.00050211    -0.00047969     0.00057817
H        -0.96438957    -0.14109953     1.89369058    -0.00017563    -0.00049495     0.00047738
H        -1.04160113     0.07424445    -0.57677021    -0.00088004    -0.00047161    -0.00072894
     6
  Step:    19            Position(A)                                  Velocity(au)
C        -0.03550261     0.01856541    -0.09043503     0.00004547     0.00014461    -0.00101920
N        -0.04129595    -0.04198860     1.39211538    -0.00004781     0.00002136     0.00088399
H         0.95875381    -0.05473057    -0.51212775     0.00035664    -0.00061828    -0.00048934
H         0.83679449    -0.18066744     1.82128343     0.00069686    -0.00048815     0.00070865
H        -0.96509508    -0.14381903     1.89623504    -0.00007882    -0.00047519     0.00043127
H        -1.04647189     0.07169424    -0.58104356    -0.00085208    -0.00043848    -0.00078997
     6
  Step:    20            Position(A)                                  Velocity(au)
C        -0.03528682     0.01935234    -0.09580419     0.00003174     0.00013658    -0.00089987
N        -0.04161807    -0.04185914     1.39680037    -0.00006585     0.00002472     0.00079039
H         0.96110890    -0.05816276    -0.51527741     0.00047863    -0.00060817    -0.00063048
H         0.84121635    -0.18342670     1.82560508     0.00086627    -0.00049493     0.00082524
H        -0.96527421    -0.14643284     1.89853099     0.00001132    -0.00045893     0.00039039
H        -1.05116460     0.06932312    -0.58563657    -0.00081930    -0.00040908    -0.00084578
     6
  Step:    21            Position(A)                                  Velocity(au)
C        -0.03514704     0.02009560    -0.10051695     0.00001853     0.00012928    -0.00078679
N        -0.04203370    -0.04171159     1.40097071    -0.00008116     0.00002785     0.00070198
H         0.96411622    -0.06154436    -0.51919146     0.00058898    -0.00060128    -0.00076312
H         0.84649992    -0.18621251     1.83052923     0.00100437    -0.00049822     0.00092466
H        -0.96496825    -0.14896074     1.90060886     0.00009397    -0.00044555     0.00035437
H        -1.05565116     0.06711101    -0.59051940    -0.00078020    -0.00038246    -0.00089543
     6
  Step:    22            Position(A)                                  Velocity(au)
C        -0.03507950     0.02079912    -0.10460924     0.00000605     0.00012252    -0.00067923
N        -0.04252635    -0.04154751     1.40465631    -0.00009337     0.00003065     0.00061815
H         0.96770020    -0.06489173    -0.52381756     0.00068426    -0.00059654    -0.00088560
H         0.85245639    -0.18900235     1.83595307     0.00110696    -0.00049675     0.00100462
H        -0.96422254    -0.15141904     1.90249686     0.00016824    -0.00043471     0.00032313
H        -1.05989587     0.06504300    -0.59565748    -0.00073402    -0.00035801    -0.00093843
     6
  Step:    23            Position(A)                                  Velocity(au)
C        -0.03507938     0.02146578    -0.10811271    -0.00000549     0.00011619    -0.00057687
N        -0.04307785    -0.04136881     1.40788341    -0.00010225     0.00003309     0.00053861
H         0.97176820    -0.06821536    -0.52909506     0.00076182    -0.00059316    -0.00099667
H         0.85887901    -0.19176762     1.84176386     0.00117184    -0.00048977     0.00106395
H        -0.96308682    -0.15382202     1.90422240     0.00023334    -0.00042622     0.00029666
H        -1.06385961     0.06310743    -0.60101378    -0.00068059    -0.00033537    -0.00097461
     6
  Step:    24            Position(A)                                  Velocity(au)
C        -0.03514091     0.02209782    -0.11105691    -0.00001596     0.00011021    -0.00047955
N        -0.04366920    -0.04117761     1.41067632    -0.00010773     0.00003515     0.00046318
H         0.97621505    -0.07152145    -0.53495726     0.00081990    -0.00059054    -0.00109549
H         0.86555403    -0.19447652     1.84784483     0.00119869    -0.00047698     0.00110245
H        -0.96161454    -0.15618290     1.90581264     0.00028868    -0.00041999     0.00027498
H        -1.06750279     0.06129457    -0.60655066    -0.00062009    -0.00031432    -0.00100408
     6
  Step:    25            Position(A)                                  Velocity(au)
C        -0.03525763     0.02269705    -0.11347029    -0.00002523     0.00010451    -0.00038716
N        -0.04428138    -0.04097607     1.41305809    -0.00010986     0.00003683     0.00039172
H         0.98092812    -0.07481286    -0.54133384     0.00085757    -0.00058820    -0.00118165
H         0.87227077    -0.19709650     1.85408043     0.00118877    -0.00045844     0.00112071
H        -0.95986169    -0.15851411     1.90729450     0.00033395    -0.00041591     0.00025804
H        -1.07078732     0.05959583    -0.61223134    -0.00055294    -0.00029473    -0.00102711
     6
  Step:    26            Position(A)                                  Velocity(au)
C        -0.03542270     0.02326496    -0.11538047    -0.00003328     0.00009906    -0.00029957
N        -0.04489600    -0.04076630     1.41505077    -0.00010881     0.00003815     0.00032406
H         0.98579174    -0.07808998    -0.54815310     0.00087465    -0.00058576    -0.00125512
H         0.87882928    -0.19959605     1.86036015     0.00114455    -0.00043446     0.00111996
H        -0.95788527    -0.16082745     1.90869430     0.00036909    -0.00041389     0.00024572
H        -1.07367764     0.05800329    -0.61802072    -0.00047967    -0.00027651    -0.00104411
     6
  Step:    27            Position(A)                                  Velocity(au)
C        -0.03562912     0.02380284    -0.11681415    -0.00004009     0.00009383    -0.00021659
N        -0.04549591    -0.04055025     1.41667532    -0.00010482     0.00003913     0.00026000
H         0.99069119    -0.08135125    -0.55534383     0.00087160    -0.00058294    -0.00131613
H         0.88504653    -0.20194608     1.86658167     0.00106937    -0.00040556     0.00110179
H        -0.95574178    -0.16313401     1.91003731     0.00039434    -0.00041379     0.00023778
H        -1.07614148     0.05650938    -0.62388600    -0.00040088    -0.00025962    -0.00105553
     6
  Step:    28            Position(A)                                  Velocity(au)
C        -0.03586999     0.02431180    -0.11779690    -0.00004570     0.00008878    -0.00013800
N        -0.04606550    -0.04032971     1.41795149    -0.00009821     0.00003982     0.00019930
H         0.99551603    -0.08459370    -0.56283689     0.00084940    -0.00057952    -0.00136515
H         0.89076004    -0.20412078     1.87265256     0.00096704    -0.00037234     0.00106805
H        -0.95348575    -0.16544405     1.91134713     0.00041014    -0.00041547     0.00023387
H        -1.07815020     0.05510679    -0.62979708    -0.00031724    -0.00024402    -0.00106186
     6
  Step:    29            Position(A)                                  Velocity(au)
C        -0.03613873     0.02479285    -0.11835296    -0.00005018     0.00008391    -0.00006354
N        -0.04659099    -0.04010622     1.41889766    -0.00008929     0.00004025     0.00014171
H         1.00016263    -0.08781341    -0.57056633     0.00080935    -0.00057537    -0.00140278
H         0.89582985    -0.20609801     1.87849124     0.00084164    -0.00033548     0.00102068
H        -0.95116843    -0.16776683     1.91264510     0.00041718    -0.00041873     0.00023353
H        -1.07967897     0.05378837    -0.63572657    -0.00022940    -0.00022968    -0.00106356
     6
  Step:    30            Position(A)                                  Velocity(au)
C        -0.03642920     0.02524689    -0.11850504    -0.00005360     0.00007918     0.00000707
N        -0.04706059    -0.03988110     1.41953080    -0.00007843     0.00004047     0.00008698
H         1.00453574    -0.09100583    -0.57847003     0.00075303    -0.00057038    -0.00142973
H         0.90013958    -0.20785953     1.88402745     0.00069735    -0.00029567     0.00096170
H        -0.94883655    -0.17011052     1.91394971     0.00041634    -0.00042336     0.00023622
H        -1.08070668     0.05254718    -0.64164974    -0.00013799    -0.00021655    -0.00106107
     6
  Step:    31            Position(A)                                  Velocity(au)
C        -0.03673576     0.02567472    -0.11827423    -0.00005608     0.00007459     0.00007412
N        -0.04746456    -0.03965546     1.41986637    -0.00006600     0.00004051     0.00003482
H         1.00854964    -0.09416610    -0.58649014     0.00068211    -0.00056451    -0.00144670
H         0.90359664    -0.20939102     1.88920228     0.00053830    -0.00025356     0.00089304
H        -0.94653144    -0.17248203     1.91527604     0.00040863    -0.00042911     0.00024128
H        -1.08121581     0.05137655    -0.64754431    -0.00004362    -0.00020457    -0.00105477
     6
  Step:    32            Position(A)                                  Velocity(au)
C        -0.03705336     0.02607709    -0.11768002    -0.00005768     0.00007011     0.00013789
N        -0.04779524    -0.03943019     1.41991842    -0.00005236     0.00004040    -0.00001499
H         1.01212809    -0.09728922    -0.59457285     0.00059821    -0.00055772    -0.00145433
H         0.90613128    -0.21068189     1.89396768     0.00036845    -0.00020981     0.00081656
H        -0.94428817    -0.17488686     1.91663531     0.00039521    -0.00043573     0.00024797
H        -1.08119222     0.05027012    -0.65339013     0.00005310    -0.00019369    -0.00104500
     6
  Step:    33            Position(A)                                  Velocity(au)
C        -0.03737744     0.02645466    -0.11674039    -0.00005852     0.00006575     0.00019861
N        -0.04804698    -0.03920603     1.41969967    -0.00003785     0.00004017    -0.00006267
H         1.01520412    -0.10037016    -0.60266811     0.00050298    -0.00055001    -0.00145325
H         0.90769529    -0.21172495     1.89828572     0.00019151    -0.00016499     0.00073399
H        -0.94213507    -0.17732904     1.91803445     0.00037732    -0.00044291     0.00025550
H        -1.08062509     0.04922195    -0.65916884     0.00015159    -0.00018382    -0.00103201
     6
  Step:    34            Position(A)                                  Velocity(au)
C        -0.03770398     0.02680802    -0.11547196    -0.00005868     0.00006147     0.00025651
N        -0.04821607    -0.03898356     1.41922169    -0.00002283     0.00003984    -0.00010841
H         1.01772003    -0.10340395    -0.61072944     0.00039804    -0.00054138    -0.00144400
H         0.90826039    -0.21251613     1.90212786     0.00001094    -0.00011963     0.00064693
H        -0.94009333    -0.17981093     1.91947580     0.00035622    -0.00045034     0.00026301
H        -1.07950686     0.04822655    -0.66486352     0.00025125    -0.00017486    -0.00101601
     6
  Step:    35            Position(A)                                  Velocity(au)
C        -0.03802944     0.02713771    -0.11389018    -0.00005823     0.00005728     0.00031173
N        -0.04830065    -0.03876329     1.41849510    -0.00000762     0.00003943    -0.00015233
H         1.01962701    -0.10638578    -0.61871340     0.00028495    -0.00053184    -0.00142706
H         0.90781690    -0.21305421     1.90547415    -0.00016993    -0.00007424     0.00055688
H        -0.93817683    -0.18233313     1.92095688     0.00033323    -0.00045770     0.00026962
H        -1.07783324     0.04727894    -0.67045838     0.00035145    -0.00016673    -0.00099714
     6
  Step:    36            Position(A)                                  Velocity(au)
C        -0.03835070     0.02744421    -0.11200968    -0.00005725     0.00005316     0.00036439
N        -0.04830067    -0.03854563     1.41752978     0.00000746     0.00003894    -0.00019455
H         1.02088489    -0.10931096    -0.62657932     0.00016527    -0.00052142    -0.00140284
H         0.90637301    -0.21334070     1.90831291    -0.00034790    -0.00002932     0.00046532
H        -0.93639223    -0.18489441     1.92247035     0.00030961    -0.00046461     0.00027445
H        -1.07560338     0.04637471    -0.67593842     0.00045152    -0.00015932    -0.00097551
     6
  Step:    37            Position(A)                                  Velocity(au)
C        -0.03866505     0.02772797    -0.10984448    -0.00005580     0.00004911     0.00041452
N        -0.04821781    -0.03833093     1.41633511     0.00002209     0.00003839    -0.00023509
H         1.02146192    -0.11217493    -0.63428883     0.00004050    -0.00051011    -0.00137172
H         0.90395425    -0.21337970     1.91064049    -0.00051980     0.00001466     0.00037371
H        -0.93473926    -0.18749160     1.92400405     0.00028657    -0.00047073     0.00027665
H        -1.07282007     0.04550999    -0.68128920     0.00055074    -0.00015254    -0.00095118
     6
  Step:    38            Position(A)                                  Velocity(au)
C        -0.03897009     0.02798937    -0.10740841    -0.00005394     0.00004512     0.00046211
N        -0.04805550    -0.03811951     1.41492021     0.00003595     0.00003778    -0.00027398
H         1.02133445    -0.11497328    -0.64180559    -0.00008786    -0.00049795    -0.00133400
H         0.90060309    -0.21317796     1.91246118    -0.00068253     0.00005720     0.00028351
H        -0.93321121    -0.19011956     1.92554122     0.00026521    -0.00047568     0.00027542
H        -1.06949006     0.04468153    -0.68649663     0.00064831    -0.00014626    -0.00092419
     6
  Step:    39            Position(A)                                  Velocity(au)
C        -0.03926371     0.02822880    -0.10471543    -0.00005171     0.00004120     0.00050708
N        -0.04781876    -0.03791164     1.41329420     0.00004877     0.00003711    -0.00031116
H         1.02048673    -0.11770170    -0.64909495    -0.00021833    -0.00048494    -0.00128998
H         0.89637877    -0.21274483     1.91378720    -0.00083302     0.00009781     0.00019619
H        -0.93179566    -0.19277126     1.92706091     0.00024648    -0.00047914     0.00027003
H        -1.06562443     0.04388661    -0.69154689     0.00074337    -0.00014040    -0.00089460
     6
  Step:    40            Position(A)                                  Velocity(au)
C        -0.03954403     0.02844664    -0.10177999    -0.00004915     0.00003733     0.00054928
N        -0.04751422    -0.03770757     1.41146642     0.00006024     0.00003640    -0.00034656
H         1.01891103    -0.12035600    -0.65612389    -0.00034941    -0.00047113    -0.00123997
H         0.89135691    -0.21209228     1.91463878    -0.00096827     0.00013600     0.00011323
H        -0.93047533    -0.19543780     1.92853849     0.00023118    -0.00048076     0.00025991
H        -1.06123895     0.04312312    -0.69642639     0.00083499    -0.00013485    -0.00086245
     6
  Step:    41            Position(A)                                  Velocity(au)
C        -0.03980934     0.02864328    -0.09861731    -0.00004629     0.00003354     0.00058854
N        -0.04714994    -0.03750751     1.40944665     0.00007013     0.00003565    -0.00038007
H         1.01660763    -0.12293220    -0.66286112    -0.00047956    -0.00045656    -0.00118434
H         0.88562909    -0.21123493     1.91504423    -0.00108541     0.00017128     0.00003612
H        -0.92922916    -0.19810865     1.92994643     0.00021987    -0.00048028     0.00024461
H        -1.05635444     0.04238948    -0.70112184     0.00092219    -0.00012952    -0.00082784
     6
  Step:    42            Position(A)                                  Velocity(au)
C        -0.04005816     0.02881915    -0.09524363    -0.00004318     0.00002983     0.00062463
N        -0.04673534    -0.03731165     1.40724532     0.00007820     0.00003486    -0.00041155
H         1.01358496    -0.12542656    -0.66927724    -0.00060728    -0.00044128    -0.00112347
H         0.87930221    -0.21019002     1.91503997    -0.00118176     0.00020317    -0.00003363
H        -0.92803344    -0.20077187     1.93125511     0.00021293    -0.00047749     0.00022385
H        -1.05099702     0.04168463    -0.70562042     0.00100398    -0.00012433    -0.00079088
     6
  Step:    43            Position(A)                                  Velocity(au)
C        -0.04028912     0.02897474    -0.09167640    -0.00003983     0.00002621     0.00065735
N        -0.04628102    -0.03712012     1.40487354     0.00008425     0.00003405    -0.00044085
H         1.00985955    -0.12783572    -0.67534507    -0.00073107    -0.00042541    -0.00105786
H         0.87249744    -0.20897730     1.91467048    -0.00125491     0.00023123    -0.00009462
H        -0.92686310    -0.20341445     1.93243387     0.00021049    -0.00047223     0.00019757
H        -1.04519825     0.04100796    -0.70991008     0.00107937    -0.00011919    -0.00075178
     6
  Step:    44            Position(A)                                  Velocity(au)
C        -0.04050104     0.02911060    -0.08793430    -0.00003628     0.00002271     0.00068646
N        -0.04579854    -0.03693299     1.40234325     0.00008815     0.00003324    -0.00046784
H         1.00545589    -0.13015686    -0.68104009    -0.00084948    -0.00040905    -0.00098811
H         0.86534827    -0.20761881     1.91398783    -0.00130297     0.00025510    -0.00014556
H        -0.92569291    -0.20602278     1.93345203     0.00021246    -0.00046445     0.00016590
H        -1.03899500     0.04035931    -0.71397980     0.00114744    -0.00011404    -0.00071079
     6