    14
  Step:   600            Position(A)                                  Velocity(au)
C        -5.02924598    -0.20624034    -0.93769927    -0.00048863    -0.00019497    -0.00023451
C        -4.40059368    -0.48555633     0.21187079     0.00064315    -0.00000782    -0.00012121
H        -5.17822450     0.82476076    -1.32637411    -0.00166006    -0.00039271    -0.00024850
H        -5.51869925    -0.72227181    -1.70656521    -0.00146258    -0.00077442     0.00027160
H        -4.19414351    -1.45618068     0.71602870     0.00100708     0.00067266     0.00042079
C        -4.13656817     0.71767272     1.02830798     0.00022088    -0.00044263     0.00012854
C        -3.01595590     1.36643213     0.67007109    -0.00003587     0.00058127     0.00039222
H        -4.94917991     1.33437195     1.35547879     0.00187292     0.00250623    -0.00222250
H        -3.00189901     2.45442035     0.57889117     0.00206447     0.00190824    -0.00076945
C        -2.11760457     0.63959236    -0.24565320     0.00021426     0.00048423    -0.00013341
H        -2.54273098    -0.21020499    -0.86419148     0.00179024    -0.00056620    -0.00214631
N        -0.80113019     0.99830063    -0.13605020    -0.00035243    -0.00051800     0.00018430
H        -0.26802478     0.59791342    -0.87006994    -0.00176627    -0.00049144    -0.00045587
H        -0.35769247     1.73299698     0.35869668    -0.00354728    -0.00066978     0.00221208
