    14
  Step:     0            Position(A)                                  Velocity(au)
C        -5.95746562    -0.95155599    -0.16286147     0.00004567     0.00011657    -0.00017818
C        -4.68031483    -0.65486569     0.10214656     0.00015625    -0.00006089    -0.00003142
H        -6.79568019    -0.24006311    -0.33383733    -0.00018946    -0.00014194     0.00040419
H        -6.13493376    -2.02798696    -0.15361958    -0.00035721    -0.00079562     0.00141838
H        -3.96234351    -1.48770086     0.21765364    -0.00116733     0.00035202    -0.00018243
C        -3.99226900     0.62526274     0.07333189    -0.00041306     0.00001180     0.00010684
C        -2.64439062     0.64874588     0.18492320     0.00003327    -0.00032364     0.00003096
H        -4.64507577     1.48966029    -0.02246118     0.00042386    -0.00003236    -0.00048960
H        -2.18255807    -0.37505021     0.40039952     0.00076454     0.00065396    -0.00001344
C        -1.80650350     1.74899925    -0.04162949     0.00006654     0.00029715     0.00001455
H        -2.24442430     2.69324283    -0.29730988    -0.00060433     0.00027946    -0.00045942
N        -0.48149761     1.61863869     0.18312311     0.00006356    -0.00010939    -0.00004865
H         0.14580662     2.38733821     0.13333530     0.00038009    -0.00081216     0.00096042
H        -0.09348590     0.82814806     0.66703125     0.00119322     0.00152831    -0.00027995
    14
  Step:     1            Position(A)                                  Velocity(au)
C        -5.95728273    -0.95036922    -0.16484069    -0.00001164     0.00009721    -0.00018250
C        -4.67816689    -0.65542177     0.10181233     0.00023144    -0.00003881    -0.00003070
H        -6.79691719    -0.24211694    -0.32936946    -0.00003982    -0.00022875     0.00040859
H        -6.13986563    -2.03654384    -0.13827824    -0.00053616    -0.00073158     0.00138231
H        -3.97557554    -1.48380063     0.21579592    -0.00121835     0.00033172    -0.00015150
C        -3.99738797     0.62532121     0.07450246    -0.00051712    -0.00000250     0.00010747
C        -2.64361025     0.64500933     0.18530216     0.00010782    -0.00035501     0.00003744
H        -4.64001175     1.48983979    -0.02794526     0.00048736     0.00007735    -0.00051293
H        -2.17443766    -0.36623109     0.40008666     0.00071968     0.00093811    -0.00004008
C        -1.80582121     1.75222875    -0.04143276     0.00005623     0.00029157     0.00002159
H        -2.25079063     2.69705672    -0.30268328    -0.00054773     0.00040178    -0.00051686
N        -0.48072821     1.61744221     0.18259008     0.00007556    -0.00010646    -0.00005063
H         0.15053579     2.37961946     0.14368338     0.00048937    -0.00057768     0.00092584
H        -0.08052954     0.84422125     0.66406661     0.00118373     0.00135818    -0.00023540
    14
  Step:     2            Position(A)                                  Velocity(au)
C        -5.95772017    -0.94942931    -0.16685403    -0.00006642     0.00007183    -0.00018413
C        -4.67525158    -0.65571464     0.10147501     0.00029515    -0.00001292    -0.00003220
H        -6.79655124    -0.24506741    -0.32489869     0.00009825    -0.00030148     0.00040406
H        -6.14666322    -2.04399166    -0.12337895    -0.00069767    -0.00059821     0.00133685
H        -3.98899716    -1.48044380     0.21433939    -0.00119930     0.00025033    -0.00010858
C        -4.00358205     0.62520810     0.07568295    -0.00060910    -0.00001945     0.00010862
C        -2.64203191     0.64097932     0.18574221     0.00017856    -0.00037621     0.00004193
H        -4.63441386     1.49135248    -0.03368254     0.00052117     0.00020990    -0.00053583
H        -2.16681362    -0.35452718     0.39952267     0.00067859     0.00117182    -0.00005708
C        -1.80527340     1.75537790    -0.04115710     0.00004205     0.00028245     0.00002898
H        -2.25640693     2.70203252    -0.30861708    -0.00046678     0.00048892    -0.00056091
N        -0.47984464     1.61630974     0.18201544     0.00008518    -0.00009744    -0.00005598
H         0.15651250     2.37470037     0.15358983     0.00059796    -0.00031389     0.00088082
H        -0.06758945     0.85786074     0.66188145     0.00118772     0.00109380    -0.00014302
    14
  Step:     3            Position(A)                                  Velocity(au)
C        -5.95873580    -0.94879787    -0.16886889    -0.00011624     0.00004132    -0.00018258
C        -4.67170984    -0.65570440     0.10110783     0.00034512     0.00001631    -0.00003629
H        -6.79476779    -0.24871243    -0.32052977     0.00021444    -0.00035174     0.00038949
H        -6.15512845    -2.04963081    -0.10903199    -0.00084082    -0.00040792     0.00128099
H        -4.00181247    -1.47832424     0.21342056    -0.00110800     0.00010657    -0.00005321
C        -4.01071311     0.62489562     0.07687877    -0.00068847    -0.00003877     0.00011018
C        -2.63970389     0.63677906     0.18621950     0.00024464    -0.00038503     0.00004408
H        -4.62861021     1.49443167    -0.03966757     0.00052615     0.00036056    -0.00055788
H        -2.15959230    -0.34059525     0.39883792     0.00065113     0.00133615    -0.00005976
C        -1.80490125     1.75840794    -0.04079875     0.00002429     0.00026959     0.00003675
H        -2.26100241     2.70775272    -0.31495420    -0.00036170     0.00053693    -0.00059012
N        -0.47886475     1.61531042     0.18136540     0.00009415    -0.00008230    -0.00006383
H         0.16361722     2.37275246     0.16295298     0.00068548    -0.00004819     0.00082741
H        -0.05454591     0.86815012     0.66093774     0.00119668     0.00076220    -0.00001796
    14
  Step:     4            Position(A)                                  Velocity(au)
C        -5.96026304    -0.94852545    -0.17084835    -0.00015919     0.00000673    -0.00017756
C        -4.66770136    -0.65535775     0.10068106     0.00038038     0.00004810    -0.00004312
H        -6.79186000    -0.25276233    -0.31637776     0.00029976    -0.00037220     0.00036408
H        -6.16505787    -2.05291566    -0.09535490    -0.00096553    -0.00017568     0.00121445
H        -4.01323688    -1.47811230     0.21317530    -0.00094971    -0.00009267     0.00001374
C        -4.01864357     0.62435988     0.07809340    -0.00075590    -0.00006008     0.00011191
C        -2.63667986     0.63255602     0.18670653     0.00030604    -0.00037931     0.00004359
H        -4.62290324     1.49924046    -0.04588733     0.00050593     0.00052128    -0.00057803
H        -2.15256885    -0.32529642     0.39821531     0.00064735     0.00141356    -0.00004329
C        -1.80474198     1.76127579    -0.04035312     0.00000335     0.00025241     0.00004501
H        -2.26431980     2.71377887    -0.32152715    -0.00023461     0.00054563    -0.00060402
N        -0.47778487     1.61450920     0.18061894     0.00010447    -0.00006181    -0.00007283
H         0.17150875     2.37364604     0.17169107     0.00073373     0.00019390     0.00076716
H        -0.04140976     0.87453525     0.66148865     0.00119632     0.00039984     0.00011830
    14
  Step:     5            Position(A)                                  Velocity(au)
C        -5.96221837    -0.94865062    -0.17275341    -0.00019421    -0.00003080    -0.00016901
C        -4.66338837    -0.65465222     0.10016442     0.00040151     0.00008127    -0.00005261
H        -6.78820998    -0.25685510    -0.31256489     0.00034747    -0.00035736     0.00032741
H        -6.17625125    -2.05347424    -0.08246357    -0.00107240     0.00008218     0.00113780
H        -4.02258928    -1.48035150     0.21372124    -0.00073785    -0.00033085     0.00008979
C        -4.02724994     0.62358132     0.07932693    -0.00081321    -0.00008301     0.00011343
C        -2.63300868     0.62848100     0.18717314     0.00036359    -0.00035716     0.00004030
H        -4.61754191     1.50583559    -0.05231308     0.00046637     0.00068109    -0.00059456
H        -2.14543035    -0.30967096     0.39789080     0.00067613     0.00139057    -0.00000327
C        -1.80482798     1.76392984    -0.03981412    -0.00002023     0.00023001     0.00005391
H        -2.26613504     2.71968935    -0.32816830    -0.00008930     0.00051796    -0.00060298
N        -0.47657920     1.61395819     0.17977221     0.00011792    -0.00003737    -0.00008136
H         0.17966887     2.37699441     0.17973610     0.00072993     0.00039257     0.00070107
H        -0.02837410     0.87689732     0.66352572     0.00116963     0.00004601     0.00024186
    14
  Step:     6            Position(A)                                  Velocity(au)
C        -5.96451169    -0.94919931    -0.17454577    -0.00022124    -0.00007011    -0.00015714
C        -4.65891764    -0.65357976     0.09953008     0.00041063     0.00011437    -0.00006440
H        -6.78425834    -0.26058031    -0.30921507     0.00035412    -0.00030426     0.00027967
H        -6.18851873    -2.05111776    -0.07046345    -0.00116271     0.00034879     0.00105246
H        -4.02937884    -1.48535038     0.21513972    -0.00049265    -0.00058273     0.00017091
C        -4.03643412     0.62254393     0.08057498    -0.00086274    -0.00010720     0.00011437
C        -2.62872569     0.62474244     0.18758814     0.00041852    -0.00031761     0.00003422
H        -4.61270059     1.51414067    -0.05889450     0.00041458     0.00082720    -0.00060547
H        -2.13777727    -0.29487499     0.39814383     0.00074322     0.00126138     0.00006320
C        -1.80518462     1.76630772    -0.03917375    -0.00004563     0.00020155     0.00006361
H        -2.26627342     2.72511022    -0.33471859     0.00006924     0.00045921    -0.00058813
N        -0.47520507     1.61369162     0.17883901     0.00013562    -0.00001065    -0.00008798
H         0.18747733     2.38223415     0.18702830     0.00066858     0.00053579     0.00062975
H        -0.01582190     0.87554175     0.66677985     0.00110115    -0.00026440     0.00033131
    14
  Step:     7            Position(A)                                  Velocity(au)
C        -5.96705831    -0.95018439    -0.17619108    -0.00024117    -0.00010992    -0.00014243
C        -4.65440504    -0.65215019     0.09875561     0.00041082     0.00014547    -0.00007788
H        -6.78046284    -0.26351143    -0.30644660     0.00032040    -0.00021324     0.00022169
H        -6.20168777    -2.04584386    -0.05943910    -0.00123838     0.00060705     0.00096079
H        -4.03336687    -1.49309975     0.21746028    -0.00023788    -0.00081790     0.00025202
C        -4.04612394     0.62123610     0.08182898    -0.00090600    -0.00013197     0.00011444
C        -2.62385280     0.62153273     0.18792168     0.00047125    -0.00026144     0.00002561
H        -4.60847209     1.52393226    -0.06555892     0.00035777     0.00094640    -0.00060902
H        -2.12917091    -0.28207581     0.39927335     0.00084874     0.00103176     0.00015590
C        -1.80582619     1.76833914    -0.03842247    -0.00007147     0.00016682     0.00007417
H        -2.26462024     2.72973539    -0.34103468     0.00023522     0.00037606    -0.00056119
N        -0.47361218     1.61372513     0.17784757     0.00015778     0.00001675    -0.00009160
H         0.19429529     2.38871577     0.19351298     0.00055140     0.00061959     0.00055366
H        -0.00428436     0.87111316     0.67077370     0.00098075    -0.00050626     0.00037154
    14
  Step:     8            Position(A)                                  Velocity(au)
C        -5.96978765    -0.95160399    -0.17766168    -0.00025532    -0.00014870    -0.00012556
C        -4.64993021    -0.65039722     0.09782636     0.00040492     0.00017200    -0.00009233
H        -6.77724894    -0.26524543    -0.30436519     0.00025173    -0.00008849     0.00015499
H        -6.21561074    -2.03783736    -0.04944425    -0.00130201     0.00083994     0.00086600
H        -4.03458288    -1.50324356     0.22065324     0.00000351    -0.00100644     0.00032793
C        -4.05625469     0.61965678     0.08307860    -0.00094235    -0.00015585     0.00011363
C        -2.61841614     0.61902305     0.18814835     0.00052026    -0.00019188     0.00001503
H        -4.60487365     1.53484497    -0.07221807     0.00030203     0.00102678    -0.00060426
H        -2.11920953    -0.27230326     0.40155453     0.00098517     0.00072148     0.00027028
C        -1.80674820     1.76995731    -0.03755113    -0.00009573     0.00012683     0.00008544
H        -2.26112743     2.73333726    -0.34699576     0.00040245     0.00027586    -0.00052451
N        -0.47175329     1.61405816     0.17683499     0.00018374     0.00004353    -0.00009172
H         0.19954035     2.39578881     0.19914066     0.00038614     0.00064705     0.00047350
H         0.00563389     0.86446640     0.67490804     0.00080552    -0.00066643     0.00035574
    14
  Step:     9            Position(A)                                  Velocity(au)
C        -5.97264402    -0.95343754    -0.17893786    -0.00026484    -0.00018453    -0.00010722
C        -4.64554661    -0.64838745     0.09673574     0.00039456     0.00019074    -0.00010709
H        -6.77495571    -0.26544725    -0.30305599     0.00015816     0.00006189     0.00008163
H        -6.23017163    -2.02746856    -0.04049361    -0.00135678     0.00103082     0.00077178
H        -4.03329000    -1.51511752     0.22463427     0.00021329    -0.00112434     0.00039415
C        -4.06673956     0.61782652     0.08431484    -0.00096903    -0.00017654     0.00011212
C        -2.61247123     0.61733499     0.18825043     0.00056253    -0.00011428     0.00000332
H        -4.60186466     1.54639514    -0.07877817     0.00025150     0.00105939    -0.00059089
H        -2.10761840    -0.26629205     0.40518616     0.00113711     0.00036358     0.00039743
C        -1.80792053     1.77111385    -0.03655334    -0.00011606     0.00008356     0.00009710
H        -2.25581579     2.73577038    -0.35250942     0.00056467     0.00016616    -0.00048085
N        -0.46959258     1.61467744     0.17584097     0.00021220     0.00006869    -0.00008836
H         0.20274288     2.40287119     0.20387171     0.00018471     0.00062664     0.00039049
H         0.01333791     0.85653383     0.67855620     0.00057962    -0.00074299     0.00028508
    14
  Step:    10            Position(A)                                  Velocity(au)
C        -5.97558147    -0.95564095    -0.18000729    -0.00027046    -0.00021515    -0.00008806
C        -4.64129849    -0.64622446     0.09548361     0.00038003     0.00019862    -0.00012168
H        -6.77378898    -0.26389145    -0.30257936     0.00005324     0.00022652     0.00000408
H        -6.24529288    -2.01528629    -0.03256017    -0.00140641     0.00116415     0.00068192
H        -4.02991671    -1.52784067     0.22927599     0.00038009    -0.00115715     0.00044750
C        -4.07745400     0.61579461     0.08553134    -0.00098292    -0.00019150     0.00011009
C        -2.60610973     0.61652301     0.18822102     0.00059553    -0.00003478    -0.00000843
H        -4.59937155     1.55802120    -0.08514499     0.00020803     0.00103928    -0.00056895
H        -2.09433298    -0.26434933     0.41024904     0.00128332    -0.00000026     0.00052578
C        -1.80928725     1.77178540    -0.03542684    -0.00013043     0.00003910     0.00010881
H        -2.24877417     2.73697243    -0.35751537     0.00071589     0.00005456    -0.00043316
N        -0.46711103     1.61556088     0.17490201     0.00024151     0.00009159    -0.00008200
H         0.20358128     2.40949780     0.20768331    -0.00003841     0.00057052     0.00030640
H         0.01831413     0.84821205     0.68114466     0.00031292    -0.00074306     0.00016697
    14
  Step:    11            Position(A)                                  Velocity(au)
C        -5.97856088    -0.95814431    -0.18086425    -0.00027282    -0.00023827    -0.00006865
C        -4.63723278    -0.64404232     0.09407380     0.00036090     0.00019345    -0.00013582
H        -6.77379088    -0.26049175    -0.30296667    -0.00004774     0.00039215    -0.00007503
H        -6.26093960    -2.00200051    -0.02557537    -0.00145488     0.00122674     0.00060011
H        -4.02497481    -1.54043234     0.23442411     0.00049967    -0.00110094     0.00048619
C        -4.08824289     0.61363714     0.08672335    -0.00098200    -0.00019864     0.00010765
C        -2.59944279     0.61657417     0.18806601     0.00061838     0.00004095    -0.00001906
H        -4.59731363     1.56913144    -0.09122512     0.00017132     0.00096585    -0.00053857
H        -2.07954338    -0.26629780     0.41668857     0.00140111    -0.00032761     0.00064339
C        -1.81077388     1.77196921    -0.03417286    -0.00013747    -0.00000499     0.00012029
H        -2.24015425     2.73696400    -0.36198570     0.00085070    -0.00005152    -0.00038434
N        -0.46430911     1.61668120     0.17404710     0.00026982     0.00011188    -0.00007344
H         0.20190254     2.41535243     0.21057480    -0.00026743     0.00049314     0.00022338
H         0.02018363     0.84027792     0.68220902     0.00001909    -0.00067995     0.00001277
    14
  Step:    12            Position(A)                                  Velocity(au)
C        -5.98154994    -0.96085365    -0.18150913    -0.00027255    -0.00025200    -0.00004952
C        -4.63340304    -0.64199236     0.09251229     0.00033658     0.00017423    -0.00014937
H        -6.77483341    -0.25531250    -0.30422070    -0.00013011     0.00054544    -0.00015320
H        -6.27712125    -1.98844908    -0.01943156    -0.00150595     0.00120969     0.00052959
H        -4.01898554    -1.55192580     0.23991224     0.00057348    -0.00096088     0.00050968
C        -4.09893707     0.61144902     0.08788640    -0.00096556    -0.00019664     0.00010479
C        -2.59258146     0.61741881     0.18780408     0.00063150     0.00010840    -0.00002749
H        -4.59562363     1.57915104    -0.09692732     0.00013947     0.00084257    -0.00050016
H        -2.06368101    -0.27151645     0.42432434     0.00147145    -0.00058358     0.00074009
C        -1.81229458     1.77167621    -0.03279530    -0.00013634    -0.00004765     0.00013131
H        -2.23016355     2.73584536    -0.36592347     0.00096439    -0.00014512    -0.00033710
N        -0.46120821     1.61800854     0.17329533     0.00029520     0.00012941    -0.00006364
H         0.19773071     2.42028620     0.21257021    -0.00048627     0.00041011     0.00014370
H         0.01873184     0.83333691     0.68142398    -0.00028624    -0.00057068    -0.00016417
    14
  Step:    13            Position(A)                                  Velocity(au)
C        -5.98452337    -0.96365728    -0.18194769    -0.00027027    -0.00025516    -0.00003111
C        -4.62986949    -0.64023065     0.09080602     0.00030653     0.00014102    -0.00016228
H        -6.77663737    -0.24855915    -0.30631812    -0.00018186     0.00067479    -0.00022826
H        -6.29388515    -1.97553630    -0.01398968    -0.00156234     0.00111074     0.00047259
H        -4.01242875    -1.56145351     0.24557431     0.00060675    -0.00074866     0.00051845
C        -4.10936638     0.60933536     0.08901593    -0.00093393    -0.00018494     0.00010152
C        -2.58562757     0.61894556     0.18746466     0.00063577     0.00016449    -0.00003289
H        -4.59426238     1.58756427    -0.10216699     0.00010955     0.00067637    -0.00045455
H        -2.04735261    -0.27906481     0.43287954     0.00148245    -0.00074623     0.00080890
C        -1.81375667     1.77092684    -0.03130012    -0.00012657    -0.00008807     0.00014170
H        -2.21905634     2.73378915    -0.36936035     0.00105321    -0.00022022    -0.00029389
N        -0.45785107     1.61951233     0.17265477     0.00031574     0.00014418    -0.00005362
H         0.19126450     2.42432437     0.21371845    -0.00067955     0.00033716     0.00006957
H         0.01392167     0.82779313     0.67861746    -0.00058681    -0.00043438    -0.00034966
    14
  Step:    14            Position(A)                                  Velocity(au)
C        -5.98746250    -0.96643566    -0.18218982    -0.00026656    -0.00024761    -0.00001371
C        -4.62669721    -0.63890729     0.08896208     0.00027047     0.00009476    -0.00017455
H        -6.77881198    -0.24055011    -0.30921428    -0.00019513     0.00077171    -0.00029850
H        -6.31130034    -1.96414956    -0.00909272    -0.00162475     0.00093625     0.00042984
H        -4.00571172    -1.56830426     0.25125442     0.00060660    -0.00047978     0.00051373
C        -4.11936858     0.60740300     0.09010740    -0.00088811    -0.00016379     0.00009785
C        -2.57867276     0.62101734     0.18708463     0.00063200     0.00020755    -0.00003473
H        -4.59322704     1.59394784    -0.10687143     0.00007812     0.00047682    -0.00040308
H        -2.03124954    -0.28784160     0.44202068     0.00143049    -0.00080783     0.00084651
C        -1.81506355     1.76974956    -0.02969526    -0.00010790    -0.00012552     0.00015127
H        -2.20712267     2.73102773    -0.37235287     0.00111446    -0.00027216    -0.00025671
N        -0.45430079     1.62116283     0.17212223     0.00032969     0.00015636    -0.00004440
H         0.18286427     2.42766225     0.21409214    -0.00083359     0.00028901     0.00000307
H         0.00589428     0.82383406     0.67377448    -0.00086667    -0.00029113    -0.00052946
    14
  Step:    15            Position(A)                                  Velocity(au)
C        -5.99035489    -0.96907412    -0.18224756    -0.00026200    -0.00023039     0.00000261
C        -4.62395246    -0.63815765     0.08698744     0.00022845     0.00003714    -0.00018619
H        -6.78090622    -0.23167663    -0.31284836    -0.00016676     0.00083149    -0.00036274
H        -6.32942959    -1.95505408    -0.00458610    -0.00169092     0.00070223     0.00040004
H        -3.99915814    -1.57194954     0.25681306     0.00058087    -0.00017149     0.00049720
C        -4.12879554     0.60575208     0.09115665    -0.00082957    -0.00013415     0.00009384
C        -2.57180133     0.62348601     0.18670484     0.00062071     0.00023704    -0.00003280
H        -4.59255346     1.59799570    -0.11098505     0.00004166     0.00025539    -0.00034748
H        -2.01605794    -0.29673761     0.45139848     0.00131899    -0.00077265     0.00085293
C        -1.81611726     1.76818075    -0.02799077    -0.00008034    -0.00015925     0.00015981
H        -2.19467538     2.72783514    -0.37497637     0.00114674    -0.00029821    -0.00022691
N        -0.45063841     1.62293300     0.17168350     0.00033560     0.00016630    -0.00003693
H         0.17302814     2.43064702     0.21378552    -0.00093751     0.00027799    -0.00005401
H        -0.00503849     0.82142410     0.66703443    -0.00111087    -0.00016134    -0.00068981
    14
  Step:    16            Position(A)                                  Velocity(au)
C        -5.99319426    -0.97147584    -0.18213279    -0.00025717    -0.00020561     0.00001794
C        -4.62169935    -0.63809476     0.08488872     0.00018084    -0.00002948    -0.00019726
H        -6.78246007    -0.22235968    -0.31714983    -0.00009785     0.00085315    -0.00042031
H        -6.34829254    -1.94878683    -0.00034108    -0.00175528     0.00043317     0.00037987
H        -3.99300412    -1.57205590     0.26213163     0.00053749     0.00015830     0.00047093
C        -4.13751702     0.60446821     0.09216025    -0.00076005    -0.00009768     0.00008955
C        -2.56509353     0.62620295     0.18636704     0.00060217     0.00025326    -0.00002712
H        -4.59231564     1.59953508    -0.11447327    -0.00000320     0.00002474    -0.00028985
H        -2.00239402    -0.30474487     0.46068023     0.00115614    -0.00065305     0.00083073
C        -1.81682109     1.76626557    -0.02619921    -0.00004412    -0.00018842     0.00016705
H        -2.18203559     2.72450379    -0.37731694     0.00114996    -0.00029793    -0.00020502
N        -0.44695885     1.62480101     0.17131424     0.00033247     0.00017463    -0.00003209
H         0.16235449     2.43374375     0.21291060    -0.00098454     0.00031231    -0.00010028
H        -0.01840812     0.82030454     0.65868359    -0.00130616    -0.00006478    -0.00081803
    14
  Step:    17            Position(A)                                  Velocity(au)
C        -5.99598097    -0.97357213    -0.18185517    -0.00025267    -0.00017608     0.00003255
C        -4.61999628    -0.63880265     0.08267211     0.00012825    -0.00010223    -0.00020777
H        -6.78304684    -0.21301226    -0.32204336     0.00000705     0.00083886    -0.00047103
H        -6.36782980    -1.94557757     0.00372426    -0.00180947     0.00015857     0.00036450
H        -3.98739948    -1.56848632     0.26711564     0.00048430     0.00049174     0.00043726
C        -4.14542312     0.60361512     0.09311581    -0.00068146    -0.00005666     0.00008512
C        -2.55862771     0.62902651     0.18611158     0.00057652     0.00025705    -0.00001788
H        -4.59262346     1.59853685    -0.11732602    -0.00005961    -0.00020179    -0.00023250
H        -1.99076511    -0.31102427     0.46957223     0.00095254    -0.00046569     0.00078400
C        -1.81708245     1.76405872    -0.02433622     0.00000025    -0.00021212     0.00017271
H        -2.16951790     2.72131730    -0.37946148     0.00112534    -0.00027339    -0.00019062
N        -0.44336507     1.62675340     0.17098144     0.00031990     0.00018225    -0.00003054
H         0.15148951     2.43747946     0.21159172    -0.00097324     0.00039415    -0.00013493
H        -0.03361333     0.82000682     0.64913844    -0.00144210    -0.00001904    -0.00090362
    14
  Step:    18            Position(A)                                  Velocity(au)
C        -5.99872193    -0.97532787    -0.18142070    -0.00024906    -0.00014487     0.00004680
C        -4.61889373    -0.64033119     0.08034339     0.00007147    -0.00017779    -0.00021778
H        -6.78230580    -0.20400804    -0.32745446     0.00014094     0.00079322    -0.00051514
H        -6.38787809    -1.94531774     0.00763314    -0.00184377    -0.00009190     0.00034855
H        -3.98240910    -1.56129824     0.27169754     0.00042910     0.00081111     0.00039880
C        -4.15242532     0.60322877     0.09402233    -0.00059574    -0.00001379     0.00008065
C        -2.55248106     0.63182640     0.18597582     0.00054385     0.00024959    -0.00000542
H        -4.59361962     1.59512046    -0.11955965    -0.00013039    -0.00041067    -0.00017792
H        -1.98155541    -0.31493267     0.47783170     0.00071955    -0.00022888     0.00071770
C        -1.81681567     1.76162496    -0.02242084     0.00005200    -0.00022945     0.00017646
H        -2.15741663     2.71852294    -0.38148709     0.00107529    -0.00022906    -0.00018235
N        -0.43996049     1.62878814     0.17064602     0.00029825     0.00019029    -0.00003267
H         0.14106293     2.44236650     0.20995874    -0.00090821     0.00051816    -0.00015779
H        -0.04995680     0.81988792     0.63891527    -0.00151222    -0.00003702    -0.00093963
    14
  Step:    19            Position(A)                                  Velocity(au)
C        -6.00142967    -0.97674139    -0.18083137    -0.00024675    -0.00011480     0.00006102
C        -4.61843278    -0.64269222     0.07790772     0.00001136    -0.00025263    -0.00022736
H        -6.77996355    -0.19565896    -0.33331305     0.00029531     0.00072254    -0.00055320
H        -6.40816583    -1.94758799     0.01134944    -0.00184909    -0.00029328     0.00032708
H        -3.97801202    -1.55074179     0.27584022     0.00037990     0.00109891     0.00035853
C        -4.15845616     0.60331339     0.09488025    -0.00050477     0.00002795     0.00007629
C        -2.54672993     0.63448666     0.18599294     0.00050427     0.00023229     0.00000984
H        -4.59547594     1.58955271    -0.12121832    -0.00021799    -0.00058882    -0.00012862
H        -1.97502364    -0.31603145     0.48527332     0.00046839     0.00003887     0.00063721
C        -1.81594484     1.75903901    -0.02047587     0.00011012    -0.00023955     0.00017795
H        -2.14599389     2.71630610    -0.38345084     0.00100314    -0.00017149    -0.00017802
N        -0.43684018     1.63091632     0.17026671     0.00026872     0.00019987    -0.00003844
H         0.13162074     2.44881531     0.20813969    -0.00079974     0.00067128    -0.00016935
H        -0.06669604     0.81919692     0.62858224    -0.00151534    -0.00012376    -0.00092441
    14
  Step:    20            Position(A)                                  Velocity(au)
C        -6.00411998    -0.97783933    -0.18008570    -0.00024587    -0.00008809     0.00007549
C        -4.61864531    -0.64585786     0.07536948    -0.00005130    -0.00032314    -0.00023658
H        -6.77584528    -0.18820108    -0.33955672     0.00046098     0.00063410    -0.00058602
H        -6.42833044    -1.95173369     0.01478871    -0.00181868    -0.00042875     0.00029654
H        -3.97409799    -1.53725756     0.27954102     0.00034500     0.00133805     0.00031976
C        -4.16346821     0.60384013     0.09569142    -0.00041031     0.00006562     0.00007215
C        -2.54144915     0.63690828     0.18619105     0.00045795     0.00020686     0.00002739
H        -4.59838851     1.58223890    -0.12237339    -0.00032426    -0.00072455    -0.00008693
H        -1.97130854    -0.31408222     0.49177190     0.00020983     0.00031940     0.00054815
C        -1.81440662     1.75638429    -0.01852779     0.00017334    -0.00024175     0.00017688
H        -2.13547098     2.71477123    -0.38538170     0.00091284    -0.00010849    -0.00017485
N        -0.43408182     1.63316069     0.16980516     0.00023321     0.00021184    -0.00004732