|===============================================================================
|
|  DFTB+ release 20.1
|
|  Copyright (C) 2006 - 2020  DFTB+ developers group
|
|===============================================================================
|
|  When publishing results obtained with DFTB+, please cite the following
|  reference:
|
|  * DFTB+, a software package for efficient approximate density functional
|    theory based atomistic simulations, J. Chem. Phys. 152, 124101 (2020).
|    [doi: 10.1063/1.5143190]
|
|  You should also cite additional publications crediting the parametrization
|  data you use. Please consult the documentation of the SK-files for the
|  references.
|
|===============================================================================

Reading input file 'dftb_in.hsd'
Parser version: 8

--------------------------------------------------------------------------------
Reading SK-files:
Done.


Processed input in HSD format written to 'dftb_pin.hsd'

Starting initialization...
--------------------------------------------------------------------------------
OpenMP threads:              1
Chosen random seed:          511178196
Mode:                        Static calculation
Self consistent charges:     Yes
SCC-tolerance:                 0.100000E-05
Max. scc iterations:                   1000
Shell resolved Hubbard:      No
Spin polarisation:           No
Nr. of up electrons:             6.000000
Nr. of down electrons:           6.000000
Periodic boundaries:         No
Electronic solver:           Relatively robust
Maximal SCC-cycles:                    1000
Initial charges:             Set automatically (system chrg:   0.100E+01)
Included shells:             C:  s, p
                             N:  s, p
                             H:  s
Spin coupling constants:     C   1(s)-1(s):  -0.455900E-01
                             C   1(s)-2(p):  -0.293000E-01
                             C   2(p)-1(s):  -0.293000E-01
                             C   2(p)-2(p):  -0.275500E-01
                             N   1(s)-1(s):  -0.468700E-01
                             N   1(s)-2(p):  -0.317000E-01
                             N   2(p)-1(s):  -0.317000E-01
                             N   2(p)-2(p):  -0.307200E-01
                             H   1(s)-1(s):  -0.792500E-01
Range separated hybrid:      Yes
  Screening parameter omega:   0.300000E+00
  Range separated algorithm:   MatrixBased
Extra options:
                             Mulliken analysis
                             Force calculation
Force type                   original
                             Eigenvector printing


REKS Calcuation:             Yes
SSR(2,2) Calcuation:         Yes
Energy Functional:           (PPS+OSS)/2
Number of Core Orbitals:                  5
Number of Active Orbitals:                2
Number of Basis:                         12
Number of States:                         2
State-Averaging Weight:          0.500000
                                 0.500000
State of Interest:                        1
Initial Guess:               Diagonalize H0 matrix
Newton-Raphson for FON opt:  Yes
NR max. Iterations:                      50
Level Shifting:              Yes
Shift Value:                     0.300000
W Scale Factor:              C  =    3.000000
                             N  =    3.000000
                             H  =    3.000000
Transition Dipole:           No
Gradient of Microstate:      No
CP-REKS Solver:              Preconditioned Conjugate-Gradient
CG max. Iterations:                     100
CG Tolerance:                  0.100000E-07
Memory for A and Hxc:        Direct Updating Without Saving
Non-Adiabatic Coupling:      Yes

--------------------------------------------------------------------------------

***  Geometry step: 0

  iSCC       reks energy        Diff energy         x_a       SCC error   
    1       -6.2585554408       0.0000000000     0.998844    1.16934983
    2       -6.2730914434      -0.0145360026     0.999579    0.11285579
    3       -6.2776652117      -0.0045737683     0.999782    0.05544593
    4       -6.2800032254      -0.0023380138     0.999862    0.02872771
    5       -6.2814885554      -0.0014853299     0.999901    0.01560341
    6       -6.2825560851      -0.0010675298     0.999922    0.01022518
    7       -6.2833643265      -0.0008082413     0.999934    0.00931655
    8       -6.2839812881      -0.0006169616     0.999942    0.00816012
    9       -6.2844464495      -0.0004651614     0.999948    0.00747563
   10       -6.2847902842      -0.0003438348     0.999951    0.00678073
   11       -6.2850392020      -0.0002489178     0.999954    0.00602670
   12       -6.2852160287      -0.0001768267     0.999956    0.00527277
   13       -6.2853396641      -0.0001236354     0.999957    0.00455698
   14       -6.2854250239      -0.0000853598     0.999958    0.00390100
   15       -6.2854833940      -0.0000583701     0.999959    0.00331473
   16       -6.2855230287      -0.0000396347     0.999959    0.00280019
   17       -6.2855498094      -0.0000267807     0.999959    0.00235462
   18       -6.2855678452      -0.0000180358     0.999959    0.00197261
   19       -6.2855799664      -0.0000121212     0.999960    0.00164760
   20       -6.2855881029      -0.0000081365     0.999960    0.00137270
   21       -6.2855935614      -0.0000054585     0.999960    0.00114129
   22       -6.2855972228      -0.0000036613     0.999960    0.00094722
   23       -6.2855996788      -0.0000024561     0.999960    0.00078496
   24       -6.2856013267      -0.0000016479     0.999960    0.00064966
   25       -6.2856024328      -0.0000011060     0.999960    0.00053708
   26       -6.2856031753      -0.0000007426     0.999960    0.00044358
   27       -6.2856036740      -0.0000004987     0.999960    0.00036605
   28       -6.2856040090      -0.0000003350     0.999960    0.00030184
   29       -6.2856042342      -0.0000002251     0.999960    0.00024874
   30       -6.2856043855      -0.0000001513     0.999960    0.00020486
   31       -6.2856044872      -0.0000001017     0.999960    0.00016864
   32       -6.2856045556      -0.0000000684     0.999960    0.00013877
   33       -6.2856046016      -0.0000000460     0.999960    0.00011414
   34       -6.2856046325      -0.0000000309     0.999960    0.00009385
   35       -6.2856046533      -0.0000000208     0.999960    0.00007715
   36       -6.2856046673      -0.0000000140     0.999960    0.00006340
   37       -6.2856046768      -0.0000000094     0.999960    0.00005209
   38       -6.2856046831      -0.0000000063     0.999960    0.00004279
   39       -6.2856046874      -0.0000000043     0.999960    0.00003514
   40       -6.2856046902      -0.0000000029     0.999960    0.00002886
   41       -6.2856046921      -0.0000000019     0.999960    0.00002370
   42       -6.2856046934      -0.0000000013     0.999960    0.00001945
   43       -6.2856046943      -0.0000000009     0.999960    0.00001597
   44       -6.2856046949      -0.0000000006     0.999960    0.00001311
   45       -6.2856046953      -0.0000000004     0.999960    0.00001076
   46       -6.2856046956      -0.0000000003     0.999960    0.00000883
   47       -6.2856046957      -0.0000000002     0.999960    0.00000725
   48       -6.2856046959      -0.0000000001     0.999960    0.00000595
   49       -6.2856046959      -0.0000000001     0.999960    0.00000488
   50       -6.2856046960      -0.0000000001     0.999960    0.00000400
   51       -6.2856046960      -0.0000000000     0.999960    0.00000328
   52       -6.2856046961      -0.0000000000     0.999960    0.00000269
   53       -6.2856046961      -0.0000000000     0.999960    0.00000221
   54       -6.2856046961      -0.0000000000     0.999960    0.00000181
   55       -6.2856046961      -0.0000000000     0.999960    0.00000149
   56       -6.2856046961      -0.0000000000     0.999960    0.00000122
   57       -6.2856046961      -0.0000000000     0.999960    0.00000100
   58       -6.2856046961      -0.0000000000     0.999960    0.00000082
  
--------------------------------------------------
 Final SA-REKS(2,2) energy:      -6.28560470
  
 State     Energy      FON(1)    FON(2)   Spin
  PPS   -6.41300468   1.999919  0.000081  0.00
  OSS   -6.15820471   1.000000  1.000000  0.00
 Trip   -6.23814083   1.000000  1.000000  1.00
--------------------------------------------------

 Lagrangian Wab:   0.00413468  0.00413454

--------------------------------------------------
 SSR: 2SI-2SA-REKS(2,2) Hamiltonian matrix
               PPS           OSS
   PPS    -6.41300468    0.00581000
   OSS     0.00581000   -6.15820471
--------------------------------------------------

----------------------------------------------------------------
 SSR: 2SI-2SA-REKS(2,2) states
                    E_n       C_{PPS}    C_{OSS}
 SSR state  1   -6.41313710  -0.999740   0.022784
 SSR state  2   -6.15807230  -0.022784  -0.999740
----------------------------------------------------------------

 unrelaxed SSR FONs for S0:  1.999400  0.000600

Total Energy:                       -6.4131370960 H         -174.5103 eV
Extrapolated to 0:                  -6.4131370960 H         -174.5103 eV

----------------------------------------------------------------------------------
 Solving CP-REKS equation for  1 state vector...
----------------------------------------------------------------------------------
  CG solver: Constructing Y initial guess
  CG solver: Iteration    1    eps =    0.000063286166
  CG solver: Iteration    2    eps =    0.000028300624
  CG solver: Iteration    3    eps =    0.000001161051
  CG solver: Iteration    4    eps =    0.000000418182
  CG solver: Iteration    5    eps =    0.000000010984
  CG solver: Iteration    6    eps =    0.000000001260
  Convergence reached in CG solver after    6 iterations
  CG solver: Calculating converged R, Z, Q2 matrix
----------------------------------------------------------------------------------

----------------------------------------------------------------------------------
 Solving CP-REKS equation for SI between  1 and  2 state vectors...
----------------------------------------------------------------------------------
  CG solver: Constructing Y initial guess
  CG solver: Iteration    1    eps =    0.001425213653
  CG solver: Iteration    2    eps =    0.001828623874
  CG solver: Iteration    3    eps =    0.000318859810
  CG solver: Iteration    4    eps =    0.000003787023
  CG solver: Iteration    5    eps =    0.000000533871
  CG solver: Iteration    6    eps =    0.000000011284
  CG solver: Iteration    7    eps =    0.000000000364
  Convergence reached in CG solver after    7 iterations
  CG solver: Calculating converged R, Z, Q2 matrix
----------------------------------------------------------------------------------

--------------------------------------------------
 Gradient Information
--------------------------------------------------
           1 st state (SSR)
     0.01068494    -0.00175352    -0.02312632
     0.00146199     0.00060055     0.02090213
     0.00584523     0.01021370     0.00289839
     0.00283300    -0.01011930    -0.00478310
    -0.00884262     0.01020911    -0.00344301
    -0.01198253    -0.00915054     0.00755192

           2 st state (SSR)
    -0.00040787    -0.00193773     0.08015840
     0.00313134     0.00242366    -0.09645049
    -0.00483443    -0.00876125     0.01744568
    -0.00252731     0.00888342    -0.01169545
    -0.00089740    -0.00565615    -0.01150459
     0.00553567     0.00504805     0.02204645
--------------------------------------------------
 Coupling Information
--------------------------------------------------
 between  1 and  2 states
--------------------------------------------------
 g vector - difference gradient
     0.00542455     0.00019307    -0.05214099
    -0.00074670    -0.00090721     0.05906138
     0.00535378     0.00986753    -0.00721804
     0.00259322    -0.00997295     0.00346040
    -0.00392704     0.00838749     0.00409877
    -0.00869781    -0.00756793    -0.00726153

 h vector - derivative coupling
    -0.00279848     0.00221166    -0.00975669
     0.00194799     0.00011605     0.00710640
     0.00018423     0.00811764     0.00138518
    -0.00196719    -0.01012441     0.00001394
     0.00108991     0.00979325     0.00139889
     0.00154354    -0.01011419    -0.00014772

 G vector - GDV
     0.00554640     0.00009211    -0.05164236
    -0.00083467    -0.00091155     0.05867631
     0.00533983     0.00948747    -0.00727365
     0.00268015    -0.00950136     0.00345618
    -0.00397261     0.00793263     0.00403079
    -0.00875910    -0.00709930    -0.00724726

 H vector - DCV - non-adiabatic coupling
    -0.00999139     0.00869645    -0.04752499
     0.00749595     0.00029247     0.03838117
     0.00167776     0.03355520     0.00413584
    -0.00724133    -0.04143355     0.00067267
     0.00356723     0.03985337     0.00621085
     0.00449177    -0.04096394    -0.00187554
--------------------------------------------------


--------------------------------------------------------------------------------
DFTB+ running times                          cpu [s]             wall clock [s]
--------------------------------------------------------------------------------
Global initialisation                  +     0.00  (  1.5%)      0.01  (  3.7%)
SCC                                    +     0.03  ( 54.3%)      0.22  ( 83.9%)
Post-SCC processing                    +     0.02  ( 42.6%)      0.02  (  9.0%)
  Force calculation                          0.02  ( 41.5%)      0.02  (  7.9%)
--------------------------------------------------------------------------------
Missing                                +     0.00  (  1.6%)      0.01  (  3.4%)
Total                                  =     0.05  (100.0%)      0.27  (100.0%)
--------------------------------------------------------------------------------
