     6
  Step:   600            Position(A)                                  Velocity(au)
C        -0.01792310     0.00670603    -0.05742834    -0.00043880     0.00023487    -0.00152335
N        -0.17070360    -0.03896149     1.36913123     0.00040146    -0.00013496     0.00098614
H         0.52285971     0.92908620    -0.38806859     0.00443344    -0.00264258     0.00560661
H         0.57542485    -0.76130489     1.63734140     0.00297041     0.00094166     0.00042068
H         0.07472872     0.65655530     1.79247810    -0.00625458     0.00421467     0.00190140
H         0.19968740    -1.03296890    -0.49111391    -0.00149936    -0.00343697    -0.00348009
