|===============================================================================
|
|  DFTB+ release 20.1
|
|  Copyright (C) 2006 - 2020  DFTB+ developers group
|
|===============================================================================
|
|  When publishing results obtained with DFTB+, please cite the following
|  reference:
|
|  * DFTB+, a software package for efficient approximate density functional
|    theory based atomistic simulations, J. Chem. Phys. 152, 124101 (2020).
|    [doi: 10.1063/1.5143190]
|
|  You should also cite additional publications crediting the parametrization
|  data you use. Please consult the documentation of the SK-files for the
|  references.
|
|===============================================================================

Reading input file 'dftb_in.hsd'
Parser version: 8

--------------------------------------------------------------------------------
Reading SK-files:
Done.


Processed input in HSD format written to 'dftb_pin.hsd'

Starting initialization...
--------------------------------------------------------------------------------
OpenMP threads:              1
Chosen random seed:          498263923
Mode:                        Static calculation
Self consistent charges:     Yes
SCC-tolerance:                 0.100000E-05
Max. scc iterations:                   1000
Shell resolved Hubbard:      No
Spin polarisation:           No
Nr. of up electrons:            16.000000
Nr. of down electrons:          16.000000
Periodic boundaries:         No
Electronic solver:           Relatively robust
Maximal SCC-cycles:                    1000
Initial charges:             Set automatically (system chrg:   0.100E+01)
Included shells:             C:  s, p
                             H:  s
                             N:  s, p
Spin coupling constants:     C   1(s)-1(s):  -0.455900E-01
                             C   1(s)-2(p):  -0.293000E-01
                             C   2(p)-1(s):  -0.293000E-01
                             C   2(p)-2(p):  -0.275500E-01
                             H   1(s)-1(s):  -0.792500E-01
                             N   1(s)-1(s):  -0.468700E-01
                             N   1(s)-2(p):  -0.317000E-01
                             N   2(p)-1(s):  -0.317000E-01
                             N   2(p)-2(p):  -0.307200E-01
Range separated hybrid:      Yes
  Screening parameter omega:   0.300000E+00
  Range separated algorithm:   MatrixBased
Extra options:
                             Mulliken analysis
                             Force calculation
Force type                   original
                             Eigenvector printing


REKS Calcuation:             Yes
SSR(2,2) Calcuation:         Yes
Energy Functional:           (PPS+OSS)/2
Number of Core Orbitals:                 15
Number of Active Orbitals:                2
Number of Basis:                         32
Number of States:                         2
State-Averaging Weight:          0.500000
                                 0.500000
State of Interest:                        1
Initial Guess:               Diagonalize H0 matrix
Newton-Raphson for FON opt:  Yes
NR max. Iterations:                      50
Level Shifting:              Yes
Shift Value:                     0.300000
W Scale Factor:              C  =    3.200000
                             H  =    3.200000
                             N  =    3.200000
Transition Dipole:           No
Gradient of Microstate:      No
CP-REKS Solver:              Preconditioned Conjugate-Gradient
CG max. Iterations:                     100
CG Tolerance:                  0.100000E-07
Memory for A and Hxc:        Direct Updating Without Saving
Non-Adiabatic Coupling:      Yes

--------------------------------------------------------------------------------

***  Geometry step: 0

  iSCC       reks energy        Diff energy         x_a       SCC error   
    1      -16.4040072326       0.0000000000     0.996494    1.19120804
    2      -16.4212286219      -0.0172213892     0.999791    0.03979529
    3      -16.4254489604      -0.0042203386     0.999963    0.01749932
    4      -16.4272313585      -0.0017823980     0.999989    0.01108685
    5      -16.4281151728      -0.0008838144     0.999996    0.00848071
    6      -16.4285849269      -0.0004697541     0.999998    0.00617923
    7      -16.4288493180      -0.0002643911     0.999999    0.00437419
    8      -16.4290071199      -0.0001578020     0.999999    0.00342000
    9      -16.4291069594      -0.0000998395     0.999999    0.00277634
   10      -16.4291735597      -0.0000666003     0.999999    0.00228007
   11      -16.4292199861      -0.0000464265     0.999999    0.00191423
   12      -16.4292534758      -0.0000334897     1.000000    0.00162310
   13      -16.4292782546      -0.0000247788     1.000000    0.00138848
   14      -16.4292969272      -0.0000186726     1.000000    0.00119667
   15      -16.4293111833      -0.0000142561     1.000000    0.00103764
   16      -16.4293221690      -0.0000109857     1.000000    0.00090412
   17      -16.4293306908      -0.0000085218     1.000000    0.00079077
   18      -16.4293373331      -0.0000066423     1.000000    0.00069367
   19      -16.4293425286      -0.0000051954     1.000000    0.00060989
   20      -16.4293466029      -0.0000040743     1.000000    0.00053718
   21      -16.4293498042      -0.0000032013     1.000000    0.00047378
   22      -16.4293523234      -0.0000025192     1.000000    0.00041832
   23      -16.4293543080      -0.0000019846     1.000000    0.00036966
   24      -16.4293558730      -0.0000015650     1.000000    0.00032688
   25      -16.4293571079      -0.0000012350     1.000000    0.00028921
   26      -16.4293580830      -0.0000009751     1.000000    0.00025599
   27      -16.4293588534      -0.0000007703     1.000000    0.00022667
   28      -16.4293594621      -0.0000006088     1.000000    0.00020077
   29      -16.4293599434      -0.0000004813     1.000000    0.00017788
   30      -16.4293603240      -0.0000003806     1.000000    0.00015763
   31      -16.4293606251      -0.0000003011     1.000000    0.00013972
   32      -16.4293608633      -0.0000002382     1.000000    0.00012387
   33      -16.4293610518      -0.0000001885     1.000000    0.00010983
   34      -16.4293612010      -0.0000001492     1.000000    0.00009741
   35      -16.4293613191      -0.0000001181     1.000000    0.00008640
   36      -16.4293614126      -0.0000000935     1.000000    0.00007664
   37      -16.4293614866      -0.0000000740     1.000000    0.00006800
   38      -16.4293615453      -0.0000000586     1.000000    0.00006034
   39      -16.4293615917      -0.0000000464     1.000000    0.00005355
   40      -16.4293616285      -0.0000000368     1.000000    0.00004753
   41      -16.4293616577      -0.0000000291     1.000000    0.00004219
   42      -16.4293616807      -0.0000000231     1.000000    0.00003746
   43      -16.4293616990      -0.0000000183     1.000000    0.00003326
   44      -16.4293617135      -0.0000000145     1.000000    0.00002953
   45      -16.4293617250      -0.0000000115     1.000000    0.00002623
   46      -16.4293617341      -0.0000000091     1.000000    0.00002329
   47      -16.4293617413      -0.0000000072     1.000000    0.00002069
   48      -16.4293617470      -0.0000000057     1.000000    0.00001838
   49      -16.4293617516      -0.0000000045     1.000000    0.00001633
   50      -16.4293617552      -0.0000000036     1.000000    0.00001451
   51      -16.4293617580      -0.0000000028     1.000000    0.00001289
   52      -16.4293617603      -0.0000000023     1.000000    0.00001146
   53      -16.4293617621      -0.0000000018     1.000000    0.00001018
   54      -16.4293617635      -0.0000000014     1.000000    0.00000905
   55      -16.4293617646      -0.0000000011     1.000000    0.00000804
   56      -16.4293617655      -0.0000000009     1.000000    0.00000715
   57      -16.4293617662      -0.0000000007     1.000000    0.00000636
   58      -16.4293617668      -0.0000000006     1.000000    0.00000565
   59      -16.4293617672      -0.0000000004     1.000000    0.00000502
   60      -16.4293617676      -0.0000000004     1.000000    0.00000447
   61      -16.4293617678      -0.0000000003     1.000000    0.00000397
   62      -16.4293617681      -0.0000000002     1.000000    0.00000353
   63      -16.4293617682      -0.0000000002     1.000000    0.00000314
   64      -16.4293617684      -0.0000000001     1.000000    0.00000279
   65      -16.4293617685      -0.0000000001     1.000000    0.00000248
   66      -16.4293617686      -0.0000000001     1.000000    0.00000221
   67      -16.4293617686      -0.0000000001     1.000000    0.00000197
   68      -16.4293617687      -0.0000000001     1.000000    0.00000175
   69      -16.4293617687      -0.0000000000     1.000000    0.00000156
   70      -16.4293617688      -0.0000000000     1.000000    0.00000138
   71      -16.4293617688      -0.0000000000     1.000000    0.00000123
   72      -16.4293617688      -0.0000000000     1.000000    0.00000110
   73      -16.4293617688      -0.0000000000     1.000000    0.00000097
  
--------------------------------------------------
 Final SA-REKS(2,2) energy:     -16.42936177
  
 State     Energy      FON(1)    FON(2)   Spin
  PPS  -16.47994784   1.999999  0.000001  0.00
  OSS  -16.37877570   1.000000  1.000000  0.00
 Trip  -16.40597947   1.000000  1.000000  1.00
--------------------------------------------------

 Lagrangian Wab:  -0.00381069 -0.00381072

--------------------------------------------------
 SSR: 2SI-2SA-REKS(2,2) Hamiltonian matrix
               PPS           OSS
   PPS   -16.47994784   -0.00538617
   OSS    -0.00538617  -16.37877570
--------------------------------------------------

----------------------------------------------------------------
 SSR: 2SI-2SA-REKS(2,2) states
                    E_n       C_{PPS}    C_{OSS}
 SSR state  1  -16.48023378  -0.998594  -0.053013
 SSR state  2  -16.37848976   0.053013  -0.998594
----------------------------------------------------------------

 unrelaxed SSR FONs for S0:  1.997189  0.002811

Total Energy:                      -16.4802337799 H         -448.4500 eV
Extrapolated to 0:                 -16.4802337799 H         -448.4500 eV

----------------------------------------------------------------------------------
 Solving CP-REKS equation for  1 state vector...
----------------------------------------------------------------------------------
  CG solver: Constructing Y initial guess
  CG solver: Iteration    1    eps =    0.001973369279
  CG solver: Iteration    2    eps =    0.000173244925
  CG solver: Iteration    3    eps =    0.000019380986
  CG solver: Iteration    4    eps =    0.000000609781
  CG solver: Iteration    5    eps =    0.000000252225
  CG solver: Iteration    6    eps =    0.000000012099
  CG solver: Iteration    7    eps =    0.000000002410
  Convergence reached in CG solver after    7 iterations
  CG solver: Calculating converged R, Z, Q2 matrix
----------------------------------------------------------------------------------

----------------------------------------------------------------------------------
 Solving CP-REKS equation for SI between  1 and  2 state vectors...
----------------------------------------------------------------------------------
  CG solver: Constructing Y initial guess
  CG solver: Iteration    1    eps =    0.032158719497
  CG solver: Iteration    2    eps =    0.001086736538
  CG solver: Iteration    3    eps =    0.000081726750
  CG solver: Iteration    4    eps =    0.000032077032
  CG solver: Iteration    5    eps =    0.000002492912
  CG solver: Iteration    6    eps =    0.000000551424
  CG solver: Iteration    7    eps =    0.000000053747
  CG solver: Iteration    8    eps =    0.000000012449
  CG solver: Iteration    9    eps =    0.000000003488
  Convergence reached in CG solver after    9 iterations
  CG solver: Calculating converged R, Z, Q2 matrix
----------------------------------------------------------------------------------

--------------------------------------------------
 Gradient Information
--------------------------------------------------
           1 st state (SSR)
    -0.08918819     0.00631569    -0.03942123
     0.03046104     0.02009292     0.04548916
     0.00607988    -0.02060448    -0.00204282
     0.00636574    -0.00501210    -0.01361605
     0.01088312    -0.00216106    -0.00013561
     0.09042768    -0.01025819    -0.00182521
    -0.05342733    -0.06054333     0.02013640
    -0.02256440     0.03358174     0.01533400
     0.00013909    -0.00032733    -0.00602133
    -0.02512180     0.02645835    -0.03294150
     0.00168584    -0.00818601     0.01202696
     0.05614189     0.00038356     0.01948557
     0.00248292     0.00042350    -0.00181955
    -0.01436547     0.01983673    -0.01464880

           2 st state (SSR)
    -0.05485974     0.01249367    -0.01871556
    -0.02204398    -0.00456451     0.03163358
     0.00878413    -0.01874371    -0.00509753
     0.00538241    -0.00652059    -0.00924666
     0.01194781     0.00114907    -0.00434659
     0.10947155    -0.01197538    -0.02422303
    -0.05328643    -0.02255562     0.02356999
    -0.02159566     0.03382009     0.01725489
     0.00477043     0.00586356    -0.00337281
     0.05357735     0.01945289    -0.00357901
     0.00495576    -0.00404321     0.01048401
    -0.04671216    -0.01407026     0.00489662
     0.00586014     0.00358571    -0.00353104
    -0.00625161     0.00610828    -0.01572686
--------------------------------------------------
 Coupling Information
--------------------------------------------------
 between  1 and  2 states
--------------------------------------------------
 g vector - difference gradient
    -0.01824841    -0.00327159    -0.01096022
     0.02776351     0.01284378     0.00754241
    -0.00139927    -0.00099392     0.00162135
     0.00056380     0.00084264    -0.00231878
    -0.00054002    -0.00178308     0.00228472
    -0.00779959     0.00052954     0.01103390
    -0.00244622    -0.01935217    -0.00182348
    -0.00050737    -0.00012138    -0.00104589
    -0.00234998    -0.00318754    -0.00124385
    -0.04096409     0.00402900    -0.01479414
    -0.00164495    -0.00225329     0.00089597
     0.05353515     0.00736600     0.00744387
    -0.00176068    -0.00169003     0.00087734
    -0.00420188     0.00704205     0.00048679

 h vector - derivative coupling
     0.00927127     0.00155100     0.00515480
    -0.01279738    -0.00418290    -0.00540463
     0.00037096     0.00054731    -0.00080171
    -0.00065143    -0.00079017     0.00114337
     0.00004381     0.00111439    -0.00157157
    -0.01668150     0.00313602     0.00214432
     0.02230913     0.00235688     0.00091080
     0.00019029     0.00001441     0.00075148
     0.00019930     0.00070064    -0.00082548
     0.01307439    -0.00475670     0.00028087
     0.00000701     0.00159833    -0.00112826
    -0.01706907    -0.00092262    -0.00101584
     0.00058727     0.00093906    -0.00015742
     0.00114595    -0.00130565     0.00051928

 G vector - GDV
    -0.01716423    -0.00308899    -0.01035284
     0.02625251     0.01232871     0.00692779
    -0.00135213    -0.00093039     0.00152736
     0.00049166     0.00075424    -0.00218469
    -0.00053235    -0.00165507     0.00210549
    -0.00952194     0.00085860     0.01119891
    -0.00007045    -0.01899386    -0.00171679
    -0.00048437    -0.00011917    -0.00096044
    -0.00231567    -0.00309544    -0.00132426
    -0.03934957     0.00350273    -0.01468124
    -0.00163496    -0.00207140     0.00077147
     0.05142703     0.00722691     0.00729448
    -0.00168861    -0.00158110     0.00085575
    -0.00405693     0.00686423     0.00053903

 H vector - DCV - non-adiabatic coupling
     0.10960094     0.01856295     0.06178500
    -0.15396441    -0.05424638    -0.06067008
     0.00508163     0.00638331    -0.00952256
    -0.00695334    -0.00859945     0.01358751
     0.00099012     0.01274683    -0.01773705
    -0.15491759     0.03009836     0.00947505
     0.22058033     0.04317281     0.01079910
     0.00238772     0.00026720     0.00843284
     0.00439326     0.01016458    -0.00677332
     0.17040850    -0.05068155     0.01814009
     0.00178032     0.01796589    -0.01195921
    -0.22253161    -0.01668225    -0.01767441
     0.00757177     0.01093639    -0.00245147
     0.01557234    -0.02008869     0.00456852
--------------------------------------------------


--------------------------------------------------------------------------------
DFTB+ running times                          cpu [s]             wall clock [s]
--------------------------------------------------------------------------------
SCC                                    +     0.10  ( 28.9%)      0.11  ( 29.3%)
      Dense to sparse                        0.02  (  5.4%)      0.02  (  4.1%)
      Range separated Hamiltonian            0.01  (  2.6%)      0.01  (  2.8%)
  Density matrix creation                    0.01  (  3.1%)      0.01  (  3.0%)
Post-SCC processing                    +     0.25  ( 70.6%)      0.25  ( 69.9%)
  Force calculation                          0.25  ( 70.5%)      0.25  ( 69.3%)
--------------------------------------------------------------------------------
Missing                                +     0.00  (  0.5%)      0.00  (  0.8%)
Total                                  =     0.36  (100.0%)      0.36  (100.0%)
--------------------------------------------------------------------------------
