|===============================================================================
|
|  DFTB+ release 20.1
|
|  Copyright (C) 2006 - 2020  DFTB+ developers group
|
|===============================================================================
|
|  When publishing results obtained with DFTB+, please cite the following
|  reference:
|
|  * DFTB+, a software package for efficient approximate density functional
|    theory based atomistic simulations, J. Chem. Phys. 152, 124101 (2020).
|    [doi: 10.1063/1.5143190]
|
|  You should also cite additional publications crediting the parametrization
|  data you use. Please consult the documentation of the SK-files for the
|  references.
|
|===============================================================================

Reading input file 'dftb_in.hsd'
Parser version: 8

--------------------------------------------------------------------------------
Reading SK-files:
Done.


Processed input in HSD format written to 'dftb_pin.hsd'

Starting initialization...
--------------------------------------------------------------------------------
OpenMP threads:              1
Chosen random seed:          449656733
Mode:                        Static calculation
Self consistent charges:     Yes
SCC-tolerance:                 0.100000E-05
Max. scc iterations:                   1000
Shell resolved Hubbard:      No
Spin polarisation:           No
Nr. of up electrons:             6.000000
Nr. of down electrons:           6.000000
Periodic boundaries:         No
Electronic solver:           Relatively robust
Maximal SCC-cycles:                    1000
Initial charges:             Set automatically (system chrg:   0.100E+01)
Included shells:             C:  s, p
                             N:  s, p
                             H:  s
Spin coupling constants:     C   1(s)-1(s):  -0.455900E-01
                             C   1(s)-2(p):  -0.293000E-01
                             C   2(p)-1(s):  -0.293000E-01
                             C   2(p)-2(p):  -0.275500E-01
                             N   1(s)-1(s):  -0.468700E-01
                             N   1(s)-2(p):  -0.317000E-01
                             N   2(p)-1(s):  -0.317000E-01
                             N   2(p)-2(p):  -0.307200E-01
                             H   1(s)-1(s):  -0.792500E-01
Range separated hybrid:      Yes
  Screening parameter omega:   0.300000E+00
  Range separated algorithm:   MatrixBased
Extra options:
                             Mulliken analysis
                             Force calculation
Force type                   original
                             Eigenvector printing


REKS Calcuation:             Yes
SSR(2,2) Calcuation:         Yes
Energy Functional:           (PPS+OSS)/2
Number of Core Orbitals:                  5
Number of Active Orbitals:                2
Number of Basis:                         12
Number of States:                         2
State-Averaging Weight:          0.500000
                                 0.500000
State of Interest:                        1
Initial Guess:               Diagonalize H0 matrix
Newton-Raphson for FON opt:  Yes
NR max. Iterations:                      50
Level Shifting:              Yes
Shift Value:                     0.300000
W Scale Factor:              C  =    3.200000
                             N  =    3.200000
                             H  =    3.200000
Transition Dipole:           No
Gradient of Microstate:      No
CP-REKS Solver:              Preconditioned Conjugate-Gradient
CG max. Iterations:                     100
CG Tolerance:                  0.100000E-07
Memory for A and Hxc:        Direct Updating Without Saving
Non-Adiabatic Coupling:      Yes

--------------------------------------------------------------------------------

***  Geometry step: 0

  iSCC       reks energy        Diff energy         x_a       SCC error   
    1       -6.1508665692       0.0000000000     0.999895    1.26079160
    2       -6.1546314008      -0.0037648316     0.999920    0.02701814
    3       -6.1555344552      -0.0009030544     0.999935    0.01212687
    4       -6.1558401369      -0.0003056816     0.999942    0.00627359
    5       -6.1559586563      -0.0001185194     0.999947    0.00384190
    6       -6.1560093066      -0.0000506503     0.999950    0.00245733
    7       -6.1560326385      -0.0000233319     0.999952    0.00162627
    8       -6.1560440186      -0.0000113801     0.999953    0.00110989
    9       -6.1560498110      -0.0000057924     0.999954    0.00077860
   10       -6.1560528532      -0.0000030422     0.999954    0.00055920
   11       -6.1560544882      -0.0000016350     0.999955    0.00040940
   12       -6.1560553819      -0.0000008937     0.999955    0.00030424
   13       -6.1560558767      -0.0000004948     0.999955    0.00022862
   14       -6.1560561533      -0.0000002766     0.999955    0.00017318
   15       -6.1560563090      -0.0000001557     0.999955    0.00013193
   16       -6.1560563972      -0.0000000882     0.999956    0.00010089
   17       -6.1560564474      -0.0000000502     0.999956    0.00007734
   18       -6.1560564761      -0.0000000287     0.999956    0.00005938
   19       -6.1560564925      -0.0000000164     0.999956    0.00004563
   20       -6.1560565020      -0.0000000094     0.999956    0.00003507
   21       -6.1560565074      -0.0000000054     0.999956    0.00002696
   22       -6.1560565105      -0.0000000031     0.999956    0.00002072
   23       -6.1560565123      -0.0000000018     0.999956    0.00001593
   24       -6.1560565134      -0.0000000010     0.999956    0.00001223
   25       -6.1560565140      -0.0000000006     0.999956    0.00000939
   26       -6.1560565143      -0.0000000003     0.999956    0.00000721
   27       -6.1560565145      -0.0000000002     0.999956    0.00000553
   28       -6.1560565146      -0.0000000001     0.999956    0.00000424
   29       -6.1560565147      -0.0000000001     0.999956    0.00000325
   30       -6.1560565148      -0.0000000000     0.999956    0.00000249
   31       -6.1560565148      -0.0000000000     0.999956    0.00000191
   32       -6.1560565148      -0.0000000000     0.999956    0.00000146
   33       -6.1560565148      -0.0000000000     0.999956    0.00000112
   34       -6.1560565148      -0.0000000000     0.999956    0.00000086
  
--------------------------------------------------
 Final SA-REKS(2,2) energy:      -6.15605651
  
 State     Energy      FON(1)    FON(2)   Spin
  PPS   -6.27712892   1.999912  0.000088  0.00
  OSS   -6.03498411   1.000000  1.000000  0.00
 Trip   -6.11274985   1.000000  1.000000  1.00
--------------------------------------------------

 Lagrangian Wab:   0.00454948  0.00454954

--------------------------------------------------
 SSR: 2SI-2SA-REKS(2,2) Hamiltonian matrix
               PPS           OSS
   PPS    -6.27712892    0.00639103
   OSS     0.00639103   -6.03498411
--------------------------------------------------

----------------------------------------------------------------
 SSR: 2SI-2SA-REKS(2,2) states
                    E_n       C_{PPS}    C_{OSS}
 SSR state  1   -6.27729749  -0.999652   0.026366
 SSR state  2   -6.03481554  -0.026366  -0.999652
----------------------------------------------------------------

 unrelaxed SSR FONs for S0:  1.999217  0.000783

Total Energy:                       -6.2772974879 H         -170.8140 eV
Extrapolated to 0:                  -6.2772974879 H         -170.8140 eV

----------------------------------------------------------------------------------
 Solving CP-REKS equation for  1 state vector...
----------------------------------------------------------------------------------
  CG solver: Constructing Y initial guess
  CG solver: Iteration    1    eps =    0.000063270847
  CG solver: Iteration    2    eps =    0.000036070499
  CG solver: Iteration    3    eps =    0.000000595579
  CG solver: Iteration    4    eps =    0.000000036570
  CG solver: Iteration    5    eps =    0.000000007436
  Convergence reached in CG solver after    5 iterations
  CG solver: Calculating converged R, Z, Q2 matrix
----------------------------------------------------------------------------------

----------------------------------------------------------------------------------
 Solving CP-REKS equation for SI between  1 and  2 state vectors...
----------------------------------------------------------------------------------
  CG solver: Constructing Y initial guess
  CG solver: Iteration    1    eps =    0.001696312598
  CG solver: Iteration    2    eps =    0.000326846379
  CG solver: Iteration    3    eps =    0.000045986699
  CG solver: Iteration    4    eps =    0.000000778472
  CG solver: Iteration    5    eps =    0.000000105523
  CG solver: Iteration    6    eps =    0.000000014219
  CG solver: Iteration    7    eps =    0.000000001336
  Convergence reached in CG solver after    7 iterations
  CG solver: Calculating converged R, Z, Q2 matrix
----------------------------------------------------------------------------------

--------------------------------------------------
 Gradient Information
--------------------------------------------------
           1 st state (SSR)
    -0.02966349     0.06432123     0.26015273
     0.08664551     0.07136238    -0.38199207
     0.04065366    -0.00530329     0.00979574
    -0.06029140    -0.07943260    -0.01269636
     0.04195814    -0.01650336     0.07983852
    -0.07930243    -0.03444437     0.04490145

           2 st state (SSR)
     0.01637373     0.03476697     0.39395187
     0.05785848    -0.03800350    -0.52833709
     0.02962187     0.03272324     0.02030240
    -0.05007532    -0.04414964    -0.00788877
     0.04188259     0.01798455     0.06553832
    -0.09566135    -0.00332161     0.05643327
--------------------------------------------------
 Coupling Information
--------------------------------------------------
 between  1 and  2 states
--------------------------------------------------
 g vector - difference gradient
    -0.02197247     0.01505082    -0.06609723
     0.01466316     0.05558280     0.07208170
     0.00538119    -0.01963048    -0.00529460
    -0.00576728    -0.01800774    -0.00223755
     0.00017066    -0.01769009     0.00726479
     0.00752474    -0.01530531    -0.00571712

 h vector - derivative coupling
     0.02042525     0.00479505     0.01696416
     0.00472857     0.01560473    -0.02259424
    -0.00269728    -0.01119113    -0.00064333
    -0.01235397    -0.00647327     0.00321287
     0.00251637    -0.00799691     0.00198422
    -0.01261894     0.00526153     0.00107633

 G vector - GDV
    -0.02301861     0.01477713    -0.06689957
     0.01439352     0.05468294     0.07317251
     0.00551589    -0.01901326    -0.00525333
    -0.00510804    -0.01764148    -0.00240380
     0.00003778    -0.01724395     0.00715010
     0.00817946    -0.01556138    -0.00576591

 H vector - DCV - non-adiabatic coupling
     0.07934037     0.02301929     0.05549426
     0.02266123     0.07634796    -0.07737959
    -0.00993835    -0.05035577    -0.00380043
    -0.05213091    -0.03057348     0.01274510
     0.01040022    -0.03677922     0.00975091
    -0.05033256     0.01834122     0.00318976
--------------------------------------------------


--------------------------------------------------------------------------------
DFTB+ running times                          cpu [s]             wall clock [s]
--------------------------------------------------------------------------------
SCC                                    +     0.02  ( 58.4%)      0.02  ( 57.6%)
Post-SCC processing                    +     0.01  ( 36.5%)      0.01  ( 33.3%)
  Force calculation                          0.01  ( 35.6%)      0.01  ( 30.3%)
--------------------------------------------------------------------------------
Missing                                +     0.00  (  5.1%)      0.00  (  9.1%)
Total                                  =     0.03  (100.0%)      0.03  (100.0%)
--------------------------------------------------------------------------------
