|===============================================================================
|
|  DFTB+ release 20.1
|
|  Copyright (C) 2006 - 2020  DFTB+ developers group
|
|===============================================================================
|
|  When publishing results obtained with DFTB+, please cite the following
|  reference:
|
|  * DFTB+, a software package for efficient approximate density functional
|    theory based atomistic simulations, J. Chem. Phys. 152, 124101 (2020).
|    [doi: 10.1063/1.5143190]
|
|  You should also cite additional publications crediting the parametrization
|  data you use. Please consult the documentation of the SK-files for the
|  references.
|
|===============================================================================

Reading input file 'dftb_in.hsd'
Parser version: 8

--------------------------------------------------------------------------------
Reading SK-files:
Done.


Processed input in HSD format written to 'dftb_pin.hsd'

Starting initialization...
--------------------------------------------------------------------------------
OpenMP threads:              1
Chosen random seed:          509979760
Mode:                        Static calculation
Self consistent charges:     Yes
SCC-tolerance:                 0.100000E-05
Max. scc iterations:                   1000
Shell resolved Hubbard:      No
Spin polarisation:           No
Nr. of up electrons:             6.000000
Nr. of down electrons:           6.000000
Periodic boundaries:         No
Electronic solver:           Relatively robust
Maximal SCC-cycles:                    1000
Initial charges:             Set automatically (system chrg:   0.100E+01)
Included shells:             C:  s, p
                             N:  s, p
                             H:  s
Spin coupling constants:     C   1(s)-1(s):  -0.455900E-01
                             C   1(s)-2(p):  -0.293000E-01
                             C   2(p)-1(s):  -0.293000E-01
                             C   2(p)-2(p):  -0.275500E-01
                             N   1(s)-1(s):  -0.468700E-01
                             N   1(s)-2(p):  -0.317000E-01
                             N   2(p)-1(s):  -0.317000E-01
                             N   2(p)-2(p):  -0.307200E-01
                             H   1(s)-1(s):  -0.792500E-01
Range separated hybrid:      Yes
  Screening parameter omega:   0.300000E+00
  Range separated algorithm:   MatrixBased
Extra options:
                             Mulliken analysis
                             Force calculation
Force type                   original
                             Eigenvector printing


REKS Calcuation:             Yes
SSR(2,2) Calcuation:         Yes
Energy Functional:           (PPS+OSS)/2
Number of Core Orbitals:                  5
Number of Active Orbitals:                2
Number of Basis:                         12
Number of States:                         2
State-Averaging Weight:          0.500000
                                 0.500000
State of Interest:                        1
Initial Guess:               Diagonalize H0 matrix
Newton-Raphson for FON opt:  Yes
NR max. Iterations:                      50
Level Shifting:              Yes
Shift Value:                     0.300000
W Scale Factor:              C  =    3.000000
                             N  =    3.000000
                             H  =    3.000000
Transition Dipole:           No
Gradient of Microstate:      No
CP-REKS Solver:              Preconditioned Conjugate-Gradient
CG max. Iterations:                     100
CG Tolerance:                  0.100000E-07
Memory for A and Hxc:        Direct Updating Without Saving
Non-Adiabatic Coupling:      Yes

--------------------------------------------------------------------------------

***  Geometry step: 0

  iSCC       reks energy        Diff energy         x_a       SCC error   
    1       -6.2623186928       0.0000000000     0.998874    1.17892928
    2       -6.2758467959      -0.0135281031     0.999571    0.10765334
    3       -6.2797114096      -0.0038646137     0.999769    0.04975137
    4       -6.2814323420      -0.0017209325     0.999849    0.02511121
    5       -6.2823657854      -0.0009334434     0.999886    0.01341077
    6       -6.2829539960      -0.0005882106     0.999906    0.00718703
    7       -6.2833611735      -0.0004071775     0.999917    0.00611877
    8       -6.2836562542      -0.0002950807     0.999924    0.00544208
    9       -6.2838739000      -0.0002176458     0.999929    0.00475730
   10       -6.2840350329      -0.0001611329     0.999932    0.00413049
   11       -6.2841540317      -0.0001189988     0.999935    0.00378364
   12       -6.2842414810      -0.0000874492     0.999936    0.00341469
   13       -6.2843053863      -0.0000639053     0.999937    0.00304531
   14       -6.2843518338      -0.0000464475     0.999938    0.00268991
   15       -6.2843854282      -0.0000335943     0.999939    0.00235742
   16       -6.2844096234      -0.0000241952     0.999939    0.00205270
   17       -6.2844269866      -0.0000173633     0.999940    0.00177779
   18       -6.2844394096      -0.0000124230     0.999940    0.00153277
   19       -6.2844482758      -0.0000088661     0.999940    0.00131652
   20       -6.2844545903      -0.0000063145     0.999940    0.00112714
   21       -6.2844590797      -0.0000044894     0.999940    0.00096236
   22       -6.2844622670      -0.0000031873     0.999940    0.00081975
   23       -6.2844645270      -0.0000022601     0.999940    0.00069686
   24       -6.2844661280      -0.0000016010     0.999940    0.00059137
   25       -6.2844672611      -0.0000011331     0.999941    0.00050110
   26       -6.2844680625      -0.0000008014     0.999941    0.00042407
   27       -6.2844686289      -0.0000005664     0.999941    0.00035847
   28       -6.2844690291      -0.0000004002     0.999941    0.00030273
   29       -6.2844693116      -0.0000002826     0.999941    0.00025544
   30       -6.2844695111      -0.0000001994     0.999941    0.00021539
   31       -6.2844696518      -0.0000001407     0.999941    0.00018150
   32       -6.2844697511      -0.0000000993     0.999941    0.00015286
   33       -6.2844698211      -0.0000000700     0.999941    0.00012867
   34       -6.2844698704      -0.0000000494     0.999941    0.00010827
   35       -6.2844699053      -0.0000000348     0.999941    0.00009107
   36       -6.2844699298      -0.0000000245     0.999941    0.00007658
   37       -6.2844699471      -0.0000000173     0.999941    0.00006438
   38       -6.2844699593      -0.0000000122     0.999940    0.00005411
   39       -6.2844699678      -0.0000000086     0.999940    0.00004547
   40       -6.2844699739      -0.0000000060     0.999940    0.00003820
   41       -6.2844699782      -0.0000000043     0.999940    0.00003209
   42       -6.2844699812      -0.0000000030     0.999940    0.00002695
   43       -6.2844699833      -0.0000000021     0.999940    0.00002264
   44       -6.2844699848      -0.0000000015     0.999940    0.00001901
   45       -6.2844699858      -0.0000000010     0.999940    0.00001596
   46       -6.2844699865      -0.0000000007     0.999940    0.00001340
   47       -6.2844699871      -0.0000000005     0.999940    0.00001125
   48       -6.2844699874      -0.0000000004     0.999940    0.00000944
   49       -6.2844699877      -0.0000000003     0.999940    0.00000793
   50       -6.2844699879      -0.0000000002     0.999940    0.00000666
   51       -6.2844699880      -0.0000000001     0.999940    0.00000559
   52       -6.2844699881      -0.0000000001     0.999940    0.00000469
   53       -6.2844699882      -0.0000000001     0.999940    0.00000394
   54       -6.2844699882      -0.0000000000     0.999940    0.00000330
   55       -6.2844699882      -0.0000000000     0.999940    0.00000277
   56       -6.2844699883      -0.0000000000     0.999940    0.00000233
   57       -6.2844699883      -0.0000000000     0.999940    0.00000195
   58       -6.2844699883      -0.0000000000     0.999940    0.00000164
   59       -6.2844699883      -0.0000000000     0.999940    0.00000138
   60       -6.2844699883      -0.0000000000     0.999940    0.00000115
   61       -6.2844699883      -0.0000000000     0.999940    0.00000097
  
--------------------------------------------------
 Final SA-REKS(2,2) energy:      -6.28446999
  
 State     Energy      FON(1)    FON(2)   Spin
  PPS   -6.40898394   1.999881  0.000119  0.00
  OSS   -6.15995604   1.000000  1.000000  0.00
 Trip   -6.24162804   1.000000  1.000000  1.00
--------------------------------------------------

 Lagrangian Wab:   0.00713813  0.00713786

--------------------------------------------------
 SSR: 2SI-2SA-REKS(2,2) Hamiltonian matrix
               PPS           OSS
   PPS    -6.40898394    0.01001666
   OSS     0.01001666   -6.15995604
--------------------------------------------------

----------------------------------------------------------------
 SSR: 2SI-2SA-REKS(2,2) states
                    E_n       C_{PPS}    C_{OSS}
 SSR state  1   -6.40938619  -0.999195   0.040126
 SSR state  2   -6.15955379  -0.040126  -0.999195
----------------------------------------------------------------

 unrelaxed SSR FONs for S0:  1.998271  0.001729

Total Energy:                       -6.4093861882 H         -174.4083 eV
Extrapolated to 0:                  -6.4093861882 H         -174.4083 eV

----------------------------------------------------------------------------------
 Solving CP-REKS equation for  1 state vector...
----------------------------------------------------------------------------------
  CG solver: Constructing Y initial guess
  CG solver: Iteration    1    eps =    0.000126035794
  CG solver: Iteration    2    eps =    0.000086849737
  CG solver: Iteration    3    eps =    0.000009291037
  CG solver: Iteration    4    eps =    0.000001041253
  CG solver: Iteration    5    eps =    0.000000013026
  CG solver: Iteration    6    eps =    0.000000006101
  Convergence reached in CG solver after    6 iterations
  CG solver: Calculating converged R, Z, Q2 matrix
----------------------------------------------------------------------------------

----------------------------------------------------------------------------------
 Solving CP-REKS equation for SI between  1 and  2 state vectors...
----------------------------------------------------------------------------------
  CG solver: Constructing Y initial guess
  CG solver: Iteration    1    eps =    0.003213983996
  CG solver: Iteration    2    eps =    0.004840902082
  CG solver: Iteration    3    eps =    0.000598912923
  CG solver: Iteration    4    eps =    0.000007431347
  CG solver: Iteration    5    eps =    0.000001051843
  CG solver: Iteration    6    eps =    0.000000029291
  CG solver: Iteration    7    eps =    0.000000002008
  Convergence reached in CG solver after    7 iterations
  CG solver: Calculating converged R, Z, Q2 matrix
----------------------------------------------------------------------------------

--------------------------------------------------
 Gradient Information
--------------------------------------------------
           1 st state (SSR)
    -0.00343925     0.00533529     0.00002517
     0.01051030     0.00114501     0.00745121
     0.01397274    -0.00480156     0.00513943
     0.01077756     0.00241046    -0.00589001
    -0.01818195    -0.00502787    -0.00808475
    -0.01363940     0.00093868     0.00135894

           2 st state (SSR)
     0.00527699    -0.00712648     0.10594436
    -0.01072209     0.01252084    -0.11471281
    -0.01157600     0.00566587     0.02121685
    -0.00852849    -0.00375356    -0.01452683
     0.01341923    -0.00018436    -0.01431878
     0.01213037    -0.00712231     0.01639721
--------------------------------------------------
 Coupling Information
--------------------------------------------------
 between  1 and  2 states
--------------------------------------------------
 g vector - difference gradient
    -0.00449511     0.00623292    -0.05504813
     0.01095741    -0.00589898     0.06279056
     0.01397447    -0.00497084    -0.00796739
     0.01080628     0.00298206     0.00440877
    -0.01720695    -0.00216010     0.00317769
    -0.01403611     0.00381495    -0.00736150

 h vector - derivative coupling
    -0.00152788    -0.00022490    -0.02383518
     0.00381526    -0.00239529     0.01878551
     0.01440509     0.00347791     0.00120934
     0.01394800    -0.00136625     0.00094988
    -0.01684743     0.00334983     0.00062904
    -0.01379305    -0.00284129     0.00226141

 G vector - GDV
    -0.00435812     0.00623088    -0.05295960
     0.01061619    -0.00568791     0.06108201
     0.01277437    -0.00523372    -0.00803871
     0.00965303     0.00308201     0.00431841
    -0.01580059    -0.00242176     0.00311702
    -0.01288488     0.00403050    -0.00751913

 H vector - DCV - non-adiabatic coupling
    -0.00753868     0.00110324    -0.11276588
     0.01873902    -0.01145007     0.09510378
     0.06195864     0.01228067     0.00226778
     0.05911808    -0.00449392     0.00520488
    -0.07274057     0.01267180     0.00352965
    -0.05953649    -0.01011172     0.00665978
--------------------------------------------------


--------------------------------------------------------------------------------
DFTB+ running times                          cpu [s]             wall clock [s]
--------------------------------------------------------------------------------
SCC                                    +     0.03  ( 71.1%)      0.03  ( 64.4%)
Post-SCC processing                    +     0.01  ( 25.8%)      0.01  ( 24.4%)
  Force calculation                          0.01  ( 25.2%)      0.01  ( 22.2%)
--------------------------------------------------------------------------------
Missing                                +     0.00  (  3.1%)      0.01  ( 11.1%)
Total                                  =     0.04  (100.0%)      0.05  (100.0%)
--------------------------------------------------------------------------------
