     6
  Step:   120            Position(A)                                  Velocity(au)
C        -0.03358282     0.07355346    -0.20074001     0.00000819    -0.00001099     0.00011848
N        -0.03842160     0.01496323     1.51263770     0.00007363    -0.00000137    -0.00011125
H         0.93701356    -0.16774525    -0.68830909     0.00022428     0.00115385    -0.00007930
H         0.66233135    -0.78042296     1.66656338    -0.00119321    -0.00067575    -0.00102605
H        -0.94367772    -0.36245062     1.85139332    -0.00056852     0.00087223     0.00031983
H        -0.93450908    -0.44354728    -0.56572910     0.00041671    -0.00120026     0.00091966
