     6
  Step:   300            Position(A)                                  Velocity(au)
C        -0.03575508    -0.01531159     0.02067235     0.00003509    -0.00004499     0.00005534
N        -0.03607447    -0.00525928     1.30244856     0.00000893     0.00007006    -0.00000585
H         0.85354498     0.10149339    -0.61815642    -0.00008848     0.00127530     0.00011607
H         0.77999643    -0.32341157     1.83870162    -0.00026992    -0.00156641    -0.00082922
H        -0.90767857    -0.17258087     1.80781612    -0.00022741     0.00113754     0.00001392
H        -1.01143691    -0.01976092    -0.48192816     0.00004353    -0.00128394     0.00012112
