     6
  Step:     0            Position(A)                                  Velocity(au)
C        -0.03947411     0.02170220     0.02528776    -0.00005735     0.00010403     0.00035821
N        -0.04261671    -0.07003140     1.28625444    -0.00013492    -0.00003110    -0.00022013
H         0.89875750    -0.02944965    -0.52506659     0.00060936    -0.00052885    -0.00053190
H         0.83073937    -0.03571243     1.93875243     0.00042002     0.00020393    -0.00011782
H        -0.89330432     0.01175593     1.80826895     0.00111784    -0.00002863    -0.00063321
H        -0.98653753     0.09820512    -0.50548773     0.00041104    -0.00045392     0.00007356
     6
  Step:     1            Position(A)                                  Velocity(au)
C        -0.03978457     0.02228109     0.02684943    -0.00005519     0.00010781     0.00021210
N        -0.04330246    -0.07025174     1.28541638    -0.00011454    -0.00004976    -0.00008651
H         0.90234679    -0.03223329    -0.52804864     0.00069683    -0.00048968    -0.00055255
H         0.83270756    -0.03445750     1.93766859     0.00029767     0.00025551    -0.00028044
H        -0.88767067     0.01177423     1.80503408     0.00092642     0.00003702    -0.00054090
H        -0.98449988     0.09587926    -0.50514949     0.00032836    -0.00039604     0.00004874
     6
  Step:     2            Position(A)                                  Velocity(au)
C        -0.04007772     0.02288125     0.02760736    -0.00005109     0.00011188     0.00006488
N        -0.04386934    -0.07057560     1.28530836    -0.00009180    -0.00006893     0.00004636
H         0.90637845    -0.03480511    -0.53110960     0.00077090    -0.00045172    -0.00056148
H         0.83399480    -0.03291798     1.93568538     0.00017264     0.00030803    -0.00044532
H        -0.88317247     0.01216084     1.80235332     0.00070550     0.00010582    -0.00043181
H        -0.98294635     0.09387378    -0.50495471     0.00023546    -0.00033736     0.00002125
     6
  Step:     3            Position(A)                                  Velocity(au)
C        -0.04034313     0.02350412     0.02755873    -0.00004514     0.00011617    -0.00008258
N        -0.04430602    -0.07100530     1.28592321    -0.00006729    -0.00008850     0.00017768
H         0.91077429    -0.03717154    -0.53418672     0.00083000    -0.00041473    -0.00055941
H         0.83459486    -0.03109010     1.93280037     0.00004774     0.00036124    -0.00060914
H        -0.87995813     0.01293101     1.80031359     0.00046013     0.00017725    -0.00030792
H        -0.98192587     0.09219124    -0.50491718     0.00013505    -0.00027836    -0.00000861
     6
  Step:     4            Position(A)                                  Velocity(au)
C        -0.04057096     0.02415068     0.02670504    -0.00003745     0.00012058    -0.00022950
N        -0.04460458    -0.07154258     1.28724989    -0.00004164    -0.00010832     0.00030674
H         0.91544774    -0.03933685    -0.53722218     0.00087241    -0.00037813    -0.00054718
H         0.83451641    -0.02897073     1.92902934    -0.00007432     0.00041495    -0.00076838
H        -0.87814467     0.01409764     1.79898877     0.00019643     0.00025083    -0.00017185
H        -0.98147072     0.09083217    -0.50504875     0.00003028    -0.00021927    -0.00004044
     6
  Step:     5            Position(A)                                  Velocity(au)
C        -0.04075217     0.02482119     0.02505192    -0.00002818     0.00012491    -0.00037490
N        -0.04476081    -0.07218845     1.28927379    -0.00001557    -0.00012819     0.00043269
H         0.92030358    -0.04130186    -0.54016353     0.00089641    -0.00034125    -0.00052571
H         0.83378301    -0.02655757     1.92440740    -0.00019061     0.00046875    -0.00091904
H        -0.87781251     0.01567082     1.79843644    -0.00007828     0.00032576    -0.00002698
H        -0.98159507     0.08979616    -0.50535893    -0.00007540    -0.00016030    -0.00007377
     6
  Step:     6            Position(A)                                  Velocity(au)
C        -0.04087874     0.02551500     0.02261031    -0.00001755     0.00012898    -0.00051736
N        -0.04477464    -0.07294276     1.29197589     0.00001009    -0.00014780     0.00055433
H         0.92523864    -0.04306406    -0.54296418     0.00090058    -0.00030359    -0.00049605
H         0.83243450    -0.02385087     1.91899130    -0.00029772     0.00052178    -0.00105661
H        -0.87899971     0.01765571     1.79869411    -0.00035544     0.00040071     0.00012252
H        -0.98229431     0.08908127    -0.50585449    -0.00017853    -0.00010196    -0.00010801
     6
  Step:     7            Position(A)                                  Velocity(au)
C        -0.04094389     0.02623052     0.01939894    -0.00000582     0.00013259    -0.00065484
N        -0.04465061    -0.07380342     1.29533066     0.00003439    -0.00016667     0.00066990
H         0.93014376    -0.04461904    -0.54558359     0.00088402    -0.00026500    -0.00045925
H         0.83052995    -0.02085633     1.91286239    -0.00039153     0.00057261    -0.00117592
H        -0.88169620     0.02004913     1.79977510    -0.00062530     0.00047364     0.00027158
H        -0.98354574     0.08868213    -0.50653906    -0.00027580    -0.00004512    -0.00014246
     6
  Step:     8            Position(A)                                  Velocity(au)
C        -0.04094235     0.02696515     0.01544814     0.00000668     0.00013550    -0.00078448
N        -0.04439852    -0.07476564     1.29930282     0.00005630    -0.00018418     0.00077701
H         0.93490742    -0.04596241    -0.54798711     0.00084672    -0.00022563    -0.00041637
H         0.82815220    -0.01758808     1.90612998    -0.00046706     0.00061940    -0.00127130
H        -0.88583873     0.02283601     1.80166444    -0.00087726     0.00054197     0.00041442
H        -0.98531085     0.08858782    -0.50741264    -0.00036443     0.00000900    -0.00017635
     6
  Step:     9            Position(A)                                  Velocity(au)
C        -0.04087069     0.02771511     0.01080408     0.00001955     0.00013747    -0.00090277
N        -0.04403377    -0.07582130     1.30384363     0.00007474    -0.00019966     0.00087266
H         0.93942050    -0.04709108    -0.55014536     0.00078974    -0.00018585    -0.00036842
H         0.82541286    -0.01407012     1.89893398    -0.00051872     0.00066028    -0.00133698
H        -0.89130752     0.02598699     1.80431553    -0.00110045     0.00060288     0.00054485
H        -0.98753847     0.08878078    -0.50847111    -0.00044222     0.00005913    -0.00020880
     6
  Step:    10            Position(A)                                  Velocity(au)
C        -0.04072764     0.02847513     0.00553232     0.00003233     0.00013821    -0.00100581
N        -0.04357753    -0.07695870     1.30888797     0.00008870    -0.00021246     0.00095362
H         0.94358176    -0.04800372    -0.55203371     0.00071533    -0.00014605    -0.00031661
H         0.82245471    -0.01033569     1.89144488    -0.00054109     0.00069369    -0.00136777
H        -0.89792583     0.02945790     1.80764893    -0.00128452     0.00065367     0.00065683
H        -0.99016808     0.08923734    -0.50970601    -0.00050755     0.00010420    -0.00023897
     6
  Step:    11            Position(A)                                  Velocity(au)
C        -0.04051441     0.02923828    -0.00028080     0.00004453     0.00013744    -0.00108993
N        -0.04305625    -0.07816280     1.31435337     0.00009732    -0.00022203     0.00101690
H         0.94730410    -0.04870067    -0.55363465     0.00062690    -0.00010665    -0.00026259
H         0.81944957    -0.00642506     1.88385990    -0.00052986     0.00071865    -0.00135996
H        -0.90546402     0.03319104     1.81155435    -0.00142081     0.00069215     0.00074525
H        -0.99313209     0.08992917    -0.51110480    -0.00055927     0.00014346    -0.00026617
     6
  Step:    12            Position(A)                                  Velocity(au)
C        -0.04023489     0.02999611    -0.00652963     0.00005565     0.00013498    -0.00115234
N        -0.04250049    -0.07941579     1.32014172     0.00010011    -0.00022802     0.00106036
H         0.95051954    -0.04918400    -0.55493975     0.00052872    -0.00006810    -0.00020833
H         0.81659093    -0.00238256     1.87639454    -0.00048273     0.00073493    -0.00131218
H        -0.91364950     0.03711775     1.81589638    -0.00150363     0.00071691     0.00080666
H        -0.99635742     0.09082498    -0.51265161    -0.00059673     0.00017651    -0.00028988
     6
  Step:    13            Position(A)                                  Velocity(au)
C        -0.03989562     0.03073913    -0.01309410     0.00006528     0.00013080    -0.00119188
N        -0.04194306    -0.08069823     1.32614390     0.00009701    -0.00023041     0.00108334
H         0.95318316    -0.04945791    -0.55595111     0.00042563    -0.00003090    -0.00015591
H         0.81408194     0.00174688     1.86926928    -0.00040020     0.00074311    -0.00122620
H        -0.92218350     0.04116265     1.82052395    -0.00153150     0.00072768     0.00083996
H        -0.99976736     0.09189185    -0.51432806    -0.00061989     0.00020329    -0.00030985
     6
  Step:    14            Position(A)                                  Velocity(au)
C        -0.03950540     0.03145783    -0.01984886     0.00007313     0.00012511    -0.00120967
N        -0.04141642    -0.08199060     1.33224808     0.00008844    -0.00022954     0.00108723
H         0.95527592    -0.04952929    -0.55668209     0.00032263     0.00000447    -0.00010739
H         0.81211873     0.00592166     1.86269178    -0.00028583     0.00074471    -0.00110726
H        -0.93076399     0.04524955     1.82528296    -0.00150772     0.00072556     0.00084671
H        -1.00328472     0.09309671    -0.51611419    -0.00062961     0.00022412    -0.00032609
     6
  Step:    15            Position(A)                                  Velocity(au)
C        -0.03907451     0.03214385    -0.02667567     0.00007915     0.00011831    -0.00120929
N        -0.04095007    -0.08327536     1.33835080     0.00007527    -0.00022614     0.00107552
H         0.95680549    -0.04940776    -0.55715680     0.00022433     0.00003767    -0.00006444
H         0.81087280     0.01010805     1.85683760    -0.00014567     0.00074213    -0.00096343
H        -0.93911140     0.04930883     1.83003031    -0.00144008     0.00071306     0.00083094
H        -1.00683632     0.09440821    -0.51798924    -0.00062769     0.00023979    -0.00033887
     6
  Step:    16            Position(A)                                  Velocity(au)
C        -0.03861351     0.03279111    -0.03347629     0.00008345     0.00011092    -0.00119606
N        -0.04056820    -0.08453895     1.34436808     0.00005859    -0.00022120     0.00105317
H         0.95780387    -0.04910480    -0.55740824     0.00013427     0.00006868    -0.00002819
H         0.81047720     0.01428468     1.85183484     0.00001308     0.00073829    -0.00080407
H        -0.94699221     0.05328504     1.83464682    -0.00133913     0.00069367     0.00079835
H        -1.01035821     0.09579886    -0.51993292    -0.00061678     0.00025142    -0.00034898
     6
  Step:    17            Position(A)                                  Velocity(au)
C        -0.03813221     0.03339646    -0.04018206     0.00013654     0.00016369    -0.00186049
N        -0.04028844    -0.08577323     1.35024365     0.00006253    -0.00034136     0.00162267
H         0.95832177    -0.04863216    -0.55747514     0.00008646     0.00015479     0.00000136
H         0.81102045     0.01844513     1.84775770     0.00029015     0.00116456    -0.00100921
H        -0.95423342     0.05714209     1.83904564    -0.00192348     0.00106179     0.00119448
H        -1.01380130     0.09724740    -0.52193012    -0.00094910     0.00041200    -0.00056600
     6
  Step:    18            Position(A)                                  Velocity(au)
C        -0.03736587     0.03429033    -0.05024133     0.00013202     0.00015050    -0.00167613
N        -0.03999096    -0.08764180     1.35903632     0.00004081    -0.00031573     0.00146859
H         0.95883536    -0.04783814    -0.55772759     0.00009883     0.00012448    -0.00009023
H         0.81315083     0.02491770     1.84264846     0.00046171     0.00111432    -0.00078666
H        -0.96465263     0.06291834     1.84561254    -0.00172591     0.00096813     0.00110765
H        -1.01929184     0.09951942    -0.52545433    -0.00097492     0.00038719    -0.00066592
     6
  Step:    19            Position(A)                                  Velocity(au)
C        -0.03662892     0.03511021    -0.05926806     0.00012650     0.00013801    -0.00150122
N        -0.03982373    -0.08936844     1.36696642     0.00001741    -0.00029202     0.00132270
H         0.95944711    -0.04721476    -0.55850253     0.00011977     0.00009497    -0.00018175
H         0.81627795     0.03113384     1.83880005     0.00063632     0.00107558    -0.00057059
H        -0.97388622     0.06816614     1.85165845    -0.00151310     0.00087782     0.00101502
H        -1.02490271     0.10165635    -0.52951295    -0.00099231     0.00036508    -0.00075480
     6
  Step:    20            Position(A)                                  Velocity(au)
C        -0.03592674     0.03586039    -0.06731996     0.00012072     0.00012693    -0.00134329
N        -0.03979292    -0.09096395     1.37408409    -0.00000664    -0.00027149     0.00119176
H         0.96019796    -0.04675769    -0.55979530     0.00014739     0.00006645    -0.00027352
H         0.82038995     0.03715402     1.83615707     0.00080884     0.00105184    -0.00036824
H        -0.98186647     0.07290486     1.85715996    -0.00129745     0.00079486     0.00092424
H        -1.03058093     0.10367279    -0.53404129    -0.00100514     0.00034717    -0.00083681
     6
  Step:    21            Position(A)                                  Velocity(au)
C        -0.03526047     0.03654895    -0.07449472     0.00011481     0.00011720    -0.00120135
N        -0.03989897    -0.09244592     1.38047542    -0.00003062    -0.00025388     0.00107504
H         0.96111788    -0.04646150    -0.56160294     0.00017951     0.00003852    -0.00036561
H         0.82544641     0.04305680     1.83462588     0.00097279     0.00104123    -0.00018207
H        -0.98859323     0.07717612     1.86213504    -0.00108188     0.00071860     0.00083700
H        -1.03629625     0.10559162    -0.53899847    -0.00101293     0.00033314    -0.00091312
     6
  Step:    22            Position(A)                                  Velocity(au)
C        -0.03463053     0.03718359    -0.08088349     0.00010862     0.00010850    -0.00107168
N        -0.04013867    -0.09383036     1.38622161    -0.00005388    -0.00023836     0.00096940
H         0.96222470    -0.04632281    -0.56392315     0.00021369     0.00001076    -0.00045730
H         0.83137296     0.04890982     1.83410142     0.00112027     0.00103966    -0.00001360
H        -0.99408124     0.08101809     1.86660996    -0.00086631     0.00064695     0.00075273
H        -1.04201719     0.10743406    -0.54435062    -0.00101321     0.00032204    -0.00098274
     6
  Step:    23            Position(A)                                  Velocity(au)
C        -0.03403795     0.03777016    -0.08655632     0.00010207     0.00010054    -0.00095110
N        -0.04050543    -0.09512866     1.39138589    -0.00007574    -0.00022418     0.00087207
H         0.96352291    -0.04634039    -0.56674982     0.00024742    -0.00001703    -0.00054732
H         0.83805490     0.05475809     1.83447286     0.00124353     0.00104306     0.00013545
H        -0.99834349     0.08445745     1.87060699    -0.00065110     0.00057816     0.00067088
H        -1.04769983     0.10921611    -0.55005912    -0.00100356     0.00031295    -0.00104416
     6
  Step:    24            Position(A)                                  Velocity(au)
C        -0.03348422     0.03831281    -0.09156534     0.00009515     0.00009312    -0.00083767
N        -0.04098934    -0.09634808     1.39601583    -0.00009558    -0.00021081     0.00078131
H         0.96500352    -0.04651406    -0.57007006     0.00027837    -0.00004487    -0.00063427
H         0.84533905     0.06062440     1.83562263     0.00133631     0.00104816     0.00026338
H        -1.00139373     0.08751140     1.87414463    -0.00043776     0.00051130     0.00059151
H        -1.05328816     0.11094884    -0.55607758    -0.00098247     0.00030527    -0.00109618
     6
  Step:    25            Position(A)                                  Velocity(au)
C        -0.03297077     0.03881458    -0.09595146     0.00008796     0.00008612    -0.00073036
N        -0.04157749    -0.09749307     1.40014887    -0.00011292    -0.00019796     0.00069615
H         0.96664503    -0.04684363    -0.57386363     0.00030445    -0.00007266    -0.00071691
H         0.85304272     0.06651407     1.83742688     0.00139453     0.00105263     0.00036908
H        -1.00325335     0.09019215     1.87724125    -0.00022865     0.00044611     0.00051521
H        -1.05871907     0.11263991    -0.56235365    -0.00094944     0.00029860    -0.00113821
     6
  Step:    26            Position(A)                                  Velocity(au)
C        -0.03249850     0.03927786    -0.09974971     0.00008065     0.00007948    -0.00062870
N        -0.04225466    -0.09856639     1.40381678    -0.00012739    -0.00018546     0.00061607
H         0.96841521    -0.04732824    -0.57810366     0.00032399    -0.00010023    -0.00079424
H         0.86096601     0.07242007     1.83975851     0.00141635     0.00105487     0.00045224
H        -1.00395591     0.09251052     1.87991803    -0.00002639     0.00038272     0.00044284
H        -1.06392748     0.11429487    -0.56883225    -0.00090468     0.00029271    -0.00117020
     6
  Step:    27            Position(A)                                  Velocity(au)
C        -0.03206759     0.03970468    -0.10299217     0.00007336     0.00007317    -0.00053246
N        -0.04300415    -0.09956997     1.40704806    -0.00013883    -0.00017324     0.00054073
H         0.97027331    -0.04796608    -0.58275818     0.00033568    -0.00012740    -0.00086555
H         0.86890410     0.07832730     1.84249139     0.00140192     0.00105388     0.00051335
H        -1.00354888     0.09447818     1.88220049     0.00016639     0.00032149     0.00037532
H        -1.06885034     0.11591790    -0.57545849    -0.00084893     0.00028746    -0.00119254
     6
  Step:    28            Position(A)                                  Velocity(au)
C        -0.03167741     0.04009685    -0.10570935     0.00006623     0.00006717    -0.00044145
N        -0.04380854    -0.10050537     1.40986907    -0.00014715    -0.00016127     0.00046987
H         0.97217240    -0.04875423    -0.58779151     0.00033864    -0.00015399    -0.00093034
H         0.87665731     0.08421582     1.84550431     0.00135291     0.00104908     0.00055358
H        -1.00209355     0.09610892     1.88411894     0.00034728     0.00026289     0.00031357
H        -1.07342937     0.11751229    -0.58217999    -0.00078325     0.00028271    -0.00120586
     6
  Step:    29            Position(A)                                  Velocity(au)
C        -0.03132663     0.04045609    -0.10793059     0.00005939     0.00006146    -0.00035550
N        -0.04465030    -0.10137409     1.41230438    -0.00015239    -0.00014957     0.00040317
H         0.97406165    -0.04968870    -0.59316580     0.00033236    -0.00017981    -0.00098837
H         0.88403892     0.09006317     1.84868421     0.00127214     0.00104022     0.00057458
H        -0.99966390     0.09741911     1.88570831     0.00051414     0.00020741     0.00025838
H        -1.07761239     0.11908055    -0.58894830    -0.00070874     0.00027835    -0.00121099
     6
  Step:    30            Position(A)                                  Velocity(au)
C        -0.03101338     0.04078401    -0.10968405     0.00005291     0.00005603    -0.00027438
N        -0.04551231    -0.10217770     1.41437675    -0.00015463    -0.00013816     0.00034031
H         0.97588835    -0.05076459    -0.59884209     0.00031663    -0.00020472    -0.00103953
H         0.89088057     0.09584607     1.85192850     0.00116307     0.00102725     0.00057830
H        -0.99634511     0.09842793     1.88700775     0.00066511     0.00015555     0.00021046
H        -1.08135357     0.12062440    -0.59571956    -0.00062658     0.00027424    -0.00120877
     6
  Step:    31            Position(A)                                  Velocity(au)
C        -0.03073540     0.04108214    -0.11099644     0.00004685     0.00005086    -0.00019780
N        -0.04637808    -0.10291789     1.41610695    -0.00015400    -0.00012706     0.00028091
H         0.97759965    -0.05197624    -0.60478131     0.00029155    -0.00022861    -0.00108384
H         0.89703491     0.10154154     1.85514608     0.00102956     0.00101030     0.00056682
H        -0.99223207     0.09915717     1.88806000     0.00079855     0.00010774     0.00017043
H        -1.08461364     0.12214483    -0.60245488    -0.00053787     0.00027024    -0.00120007
     6
  Step:    32            Position(A)                                  Velocity(au)
C        -0.03049019     0.04135192    -0.11189277     0.00004125     0.00004593    -0.00012544
N        -0.04723202    -0.10359654     1.41751358    -0.00015068    -0.00011630     0.00022458
H         0.97914392    -0.05331743    -0.61094489     0.00025739    -0.00025140    -0.00112142
H         0.90237727     0.10712765     1.85825797     0.00087566     0.00098958     0.00054228
H        -0.98742803     0.09963103     1.88891093     0.00091302     0.00006441     0.00013883
H        -1.08735975     0.12364201    -0.60912030    -0.00044371     0.00026621    -0.00118575
     6
  Step:    33            Position(A)                                  Velocity(au)
C        -0.03027512     0.04159471    -0.11239620     0.00003610     0.00004124    -0.00005696
N        -0.04805949    -0.10421568     1.41861300    -0.00014482    -0.00010591     0.00017090
H         0.98047181    -0.05478160    -0.61729517     0.00021461    -0.00027303    -0.00115242
H         0.90680637     0.11258420     1.86119734     0.00070544     0.00096541     0.00050678
H        -0.98204368     0.09987589     1.88960924     0.00100727     0.00002590     0.00011613
H        -1.08956497     0.12511540    -0.61568656    -0.00034509     0.00026201    -0.00116655
     6
  Step:    34            Position(A)                                  Velocity(au)
C        -0.03008760     0.04181179    -0.11252793     0.00003141     0.00003676     0.00000798
N        -0.04884690    -0.10477752     1.41941926    -0.00013660    -0.00009591     0.00011947
H         0.98153705    -0.05636199    -0.62379568     0.00016380    -0.00029348    -0.00117704
H         0.91024372     0.11789308     1.86390910     0.00052283     0.00093816     0.00046231
H        -0.97619589     0.09991985     1.89020590     0.00108024    -0.00000750     0.00010268
H        -1.09120784     0.12656374    -0.62212860    -0.00024292     0.00025753    -0.00114315
     6
  Step:    35            Position(A)                                  Velocity(au)
C        -0.02992507     0.04200433    -0.11230729     0.00002716     0.00003248     0.00006970
N        -0.04958169    -0.10528439     1.41994425    -0.00012621    -0.00008632     0.00006992
H         0.98229706    -0.05805187    -0.63041125     0.00010563    -0.00031275    -0.00119547
H         0.91263238     0.12303840     1.86634901     0.00033149     0.00090820     0.00041071
H        -0.97000626     0.09979232     1.89075345     0.00113119    -0.00003560     0.00009872
H        -1.09227194     0.12798517    -0.62842506    -0.00013808     0.00025266    -0.00111616
     6
  Step:    36            Position(A)                                  Velocity(au)
C        -0.02978516     0.04217344    -0.11175176     0.00002331     0.00002838     0.00012850
N        -0.05025235    -0.10573874     1.42019788    -0.00011383    -0.00007716     0.00002193
H         0.98271332    -0.05984462    -0.63710804     0.00004085    -0.00033086    -0.00120790
H         0.91393505     0.12800653     1.86848264     0.00013482     0.00087592     0.00035364
H        -0.96359928     0.09952345     1.89130523     0.00115975    -0.00005831     0.00010431
H        -1.09274543     0.12937734    -0.63455782    -0.00003134     0.00024732    -0.00108608
     6
  Step:    37            Position(A)                                  Velocity(au)
C        -0.02966563     0.04232014    -0.11087724     0.00001984     0.00002445     0.00018464
N        -0.05084850    -0.10614306     1.42018834    -0.00009968    -0.00006844    -0.00002477
H         0.98275164    -0.06173382    -0.64385338    -0.00002977    -0.00034784    -0.00121450
H         0.91413277     0.13278610     1.87028449    -0.00006393     0.00084173     0.00029265
H        -0.95710004     0.09914342     1.89191421     0.00116594    -0.00007568     0.00011927
H        -1.09262070     0.13073747    -0.64051144     0.00007655     0.00024143    -0.00105331
     6
  Step:    38            Position(A)                                  Velocity(au)
C        -0.02956449     0.04244540    -0.10969824     0.00001671     0.00002069     0.00023831
N        -0.05136101    -0.10649990     1.41992238    -0.00008399    -0.00006016    -0.00007041
H         0.98238220    -0.06371329    -0.65061561    -0.00010543    -0.00036373    -0.00121540
H         0.91322405     0.13736820     1.87173742    -0.00026164     0.00080607     0.00022919
H        -0.95063176     0.09868176     1.89263174     0.00115030    -0.00008787     0.00014321
H        -1.09189402     0.13206251    -0.64627265     0.00018489     0.00023495    -0.00101820
     6
  Step:    39            Position(A)                                  Velocity(au)
C        -0.02947991     0.04255013    -0.10822817     0.00001388     0.00001708     0.00028967
N        -0.05178219    -0.10681178     1.41940564    -0.00006704    -0.00005232    -0.00011514
H         0.98157970    -0.06577711    -0.65736391    -0.00018527    -0.00037856    -0.00121071
H         0.91122430     0.14174650     1.87283223    -0.00045528     0.00076941     0.00016469
H        -0.94431316     0.09816661     1.89350611     0.00111382    -0.00009520     0.00017544
H        -1.09056543     0.13334921    -0.65182993     0.00029297     0.00022785    -0.00098103
     6
  Step:    40            Position(A)                                  Velocity(au)
C        -0.02941031     0.04263521    -0.10647965     0.00001131     0.00001362     0.00033881
N        -0.05210591    -0.10708124     1.41864300    -0.00004913    -0.00004492    -0.00015905
H         0.98032357    -0.06791962    -0.66406817    -0.00026843    -0.00039236    -0.00120051
H         0.90816534     0.14591738     1.87356731    -0.00064181     0.00073225     0.00010049
H        -0.93825571     0.09762395     1.89458110     0.00105805    -0.00009811     0.00021500
H        -1.08863869     0.13459422    -0.65717316     0.00040009     0.00022011    -0.00094200
     6
  Step:    41            Position(A)                                  Velocity(au)
C        -0.02935429     0.04270147    -0.10446478     0.00000897     0.00001031     0.00038577
N        -0.05232787    -0.10731075     1.41763896    -0.00003060    -0.00003796    -0.00020215
H         0.97859811    -0.07013537    -0.67069885    -0.00035395    -0.00040516    -0.00118489
H         0.90409523     0.14988014     1.87394841    -0.00081827     0.00069514     0.00003794
H        -0.93256071     0.09707682     1.89589428     0.00098506    -0.00009719     0.00026060
H        -1.08612133     0.13579417    -0.66229333     0.00050551     0.00021175    -0.00090128
     6
  Step:    42            Position(A)                                  Velocity(au)
C        -0.02931066     0.04274975    -0.10219553     0.00000683     0.00000715     0.00043052
N        -0.05244577    -0.10750275     1.41639802    -0.00001186    -0.00003141    -0.00024439
H         0.97639276    -0.07241909    -0.67722686    -0.00044089    -0.00041697    -0.00116390
H         0.89907811     0.15363719     1.87398859    -0.00098167     0.00065866    -0.00002164
H        -0.92731621     0.09654458     1.89747517     0.00089751    -0.00009318     0.00031061
H        -1.08302484     0.13694574    -0.66718229     0.00060844     0.00020276    -0.00085904
     6
  Step:    43            Position(A)                                  Velocity(au)
C        -0.02927840     0.04278091    -0.09968400     0.00000487     0.00000415     0.00047299
N        -0.05245959    -0.10765959     1.41492510     0.00000667    -0.00002528    -0.00028564
H         0.97370225    -0.07476562    -0.68362354    -0.00052820    -0.00042779    -0.00113762
H         0.89319412     0.15719426     1.87370811    -0.00112908     0.00062342    -0.00007691
H        -0.92259419     0.09604214     1.89934353     0.00079853    -0.00008690     0.00036313
H        -1.07936486     0.13804578    -0.67183262     0.00070806     0.00019320    -0.00081539
     6
  Step:    44            Position(A)                                  Velocity(au)
C        -0.02925663     0.04279581    -0.09694281     0.00000304     0.00000130     0.00051303
N        -0.05237168    -0.10778354     1.41322590     0.00002455    -0.00001956    -0.00032570
H         0.97052682    -0.07716989    -0.68986063    -0.00061486    -0.00043763    -0.00110613
H         0.88653911     0.16056057     1.87313443    -0.00125766     0.00059009    -0.00012659
H        -0.91844816     0.09557947     1.90150790     0.00069163    -0.00007931     0.00041600
H        -1.07516149     0.13909135    -0.67623756     0.00080351     0.00018312    -0.00077047
     6