     6
  Step:     0            Position(A)                                  Velocity(au)
C        -0.03732411     0.02108469     0.02949907    -0.00002524     0.00008144     0.00027175
N        -0.04074750    -0.05786652     1.29234313     0.00015736    -0.00008537    -0.00023720
H         0.88261892    -0.05049294    -0.49051678     0.00021910    -0.00016442    -0.00033785
H         0.82426464    -0.09119356     1.78809076    -0.00152111     0.00028152    -0.00028574
H        -0.94218526    -0.03221891     1.84924805    -0.00061745     0.00053349     0.00032681
H        -0.96663838     0.05701449    -0.56514818     0.00003357    -0.00043464     0.00035474
     6
  Step:     1            Position(A)                                  Velocity(au)
C        -0.03748992     0.02158530     0.03057726    -0.00003475     0.00010202     0.00012275
N        -0.03993997    -0.05833614     1.29139724     0.00013608    -0.00008621    -0.00010940
H         0.88430698    -0.05157960    -0.49264214     0.00039558    -0.00023468    -0.00043440
H         0.81641951    -0.08980470     1.78685028    -0.00132739     0.00022431    -0.00015883
H        -0.94536398    -0.02944405     1.85090965    -0.00053878     0.00047999     0.00027460
H        -0.96654801     0.05449855    -0.56314767    -0.00000624    -0.00048722     0.00037617
     6
  Step:     2            Position(A)                                  Velocity(au)
C        -0.03770419     0.02220049     0.03084152    -0.00004284     0.00012321    -0.00002583
N        -0.03925921    -0.05880942     1.29114665     0.00011136    -0.00008688     0.00001689
H         0.88694528    -0.05305954    -0.49526776     0.00056335    -0.00030697    -0.00052040
H         0.80974718    -0.08874034     1.78635362    -0.00109588     0.00016390    -0.00001421
H        -0.94807782    -0.02696936     1.85225134    -0.00044865     0.00042497     0.00021180
H        -0.96670662     0.05168590    -0.56103407    -0.00005572    -0.00054268     0.00039589
     6
  Step:     3            Position(A)                                  Velocity(au)
C        -0.03795831     0.02293235     0.03029481    -0.00004926     0.00014465    -0.00017417
N        -0.03872249    -0.05928601     1.29158189     0.00008379    -0.00008755     0.00014162
H         0.89046609    -0.05493569    -0.49833160     0.00071515    -0.00037879    -0.00059481
H         0.80443831    -0.08801285     1.78669487    -0.00083313     0.00010171     0.00014699
H        -0.95026905    -0.02479785     1.85322521    -0.00034866     0.00036986     0.00014210
H        -0.96715717     0.04856545    -0.55881941    -0.00011056    -0.00059975     0.00041302
     6
  Step:     4            Position(A)                                  Velocity(au)
C        -0.03824260     0.02378138     0.02893805    -0.00005386     0.00016601    -0.00032243
N        -0.03834352    -0.05976627     1.29269442     0.00005407    -0.00008833     0.00026486
H         0.89476096    -0.05719929    -0.50176823     0.00084413    -0.00044792    -0.00065703
H         0.80064208    -0.08762879     1.78795998    -0.00054716     0.00003888     0.00032260
H        -0.95188828    -0.02292721     1.85380431    -0.00024042     0.00031555     0.00006918
H        -0.96791494     0.04513135    -0.55652024    -0.00016595    -0.00065718     0.00042668
     6
  Step:     5            Position(A)                                  Velocity(au)
C        -0.03854682     0.02474616     0.02677198    -0.00005655     0.00018679    -0.00046999
N        -0.03813177    -0.06025108     1.29447573     0.00002303    -0.00008930     0.00038613
H         0.89968913    -0.05982973    -0.50551038     0.00094551    -0.00051192    -0.00070658
H         0.79845999    -0.08758807     1.79021966    -0.00024716    -0.00002302     0.00050879
H        -0.95289584    -0.02135012     1.85398106    -0.00012608     0.00026316    -0.00000366
H        -0.96897032     0.04138510    -0.55415752    -0.00021830    -0.00071305     0.00043594
     6
  Step:     6            Position(A)                                  Velocity(au)
C        -0.03886053     0.02582242     0.02380263    -0.00005728     0.00020641    -0.00061501
N        -0.03809189    -0.06074203     1.29691358    -0.00000835    -0.00009054     0.00050412
H         0.90509227    -0.06279291    -0.50948876     0.00101714    -0.00056839    -0.00074285
H         0.79794141    -0.08788027     1.79351936     0.00005673    -0.00008199     0.00069963
H        -0.95326594    -0.02005176     1.85376434    -0.00000883     0.00021398    -0.00007360
H        -0.97030022     0.03734003    -0.55175690    -0.00026637    -0.00076499     0.00043983
     6
  Step:     7            Position(A)                                  Velocity(au)
C        -0.03917299     0.02700270     0.02004839    -0.00005596     0.00022424    -0.00075440
N        -0.03822309    -0.06124086     1.29998698    -0.00003899    -0.00009196     0.00061658
H         0.91080900    -0.06604365    -0.51363151     0.00105900    -0.00061563    -0.00076532
H         0.79908023    -0.08848442     1.79786836     0.00035360    -0.00013638     0.00088737
H        -0.95299240    -0.01901082     1.85317648     0.00010710     0.00016881    -0.00013816
H        -0.97188242     0.03302193    -0.54934913    -0.00031096    -0.00081079     0.00043731
     6
  Step:     8            Position(A)                                  Velocity(au)
C        -0.03947306     0.02827670     0.01554562    -0.00005256     0.00023972    -0.00088426
N        -0.03851861    -0.06174857     1.30366211    -0.00006769    -0.00009336     0.00072070
H         0.91668309    -0.06953100    -0.51786525     0.00107212    -0.00065275    -0.00077386
H         0.80181158    -0.08937300     1.80323171     0.00063185    -0.00018523     0.00106313
H        -0.95209374    -0.01820414     1.85225213     0.00021664     0.00012770    -0.00019490
H        -0.97370369     0.02846582    -0.54697048    -0.00035356    -0.00084889     0.00042737
     6
  Step:     9            Position(A)                                  Velocity(au)
C        -0.03974931     0.02963148     0.01035168    -0.00004705     0.00025235    -0.00100033
N        -0.03896543    -0.06226461     1.30789009    -0.00009326    -0.00009440     0.00081338
H         0.92256585    -0.07320165    -0.52211762     0.00105796    -0.00067930    -0.00076887
H         0.80600906    -0.09051561     1.80952654     0.00087970    -0.00022800     0.00121781
H        -0.95061669    -0.01761042     1.85103920     0.00031427     0.00009031    -0.00024118
H        -0.97575956     0.02371306    -0.54466257    -0.00039523    -0.00087807     0.00040916
     6
  Step:    10            Position(A)                                  Velocity(au)
C        -0.03999045     0.03105149     0.00454594    -0.00003956     0.00026161    -0.00109851
N        -0.03954406    -0.06278663     1.31260606    -0.00011450    -0.00009478     0.00089161
H         0.92831637    -0.07700054    -0.52631979     0.00101823    -0.00069493    -0.00075123
H         0.81148477    -0.09188005     1.81662277     0.00108607    -0.00026428     0.00134308
H        -0.94863807    -0.01721106     1.84960016     0.00039438     0.00005628    -0.00027431
H        -0.97804968     0.01881061    -0.54247133    -0.00043614    -0.00089728     0.00038220
     6
  Step:    11            Position(A)                                  Velocity(au)
C        -0.04018586     0.03251850    -0.00177099    -0.00003031     0.00026712    -0.00117529
N        -0.04022894    -0.06331057     1.31772947    -0.00013040    -0.00009423     0.00095276
H         0.93380250    -0.08087061    -0.53040787     0.00095524    -0.00069949    -0.00072208
H         0.81799438    -0.09343206     1.82434807     0.00124186    -0.00029367     0.00143230
H        -0.94626449    -0.01698935     1.84801210     0.00045193     0.00002544    -0.00029193
H        -0.98057254     0.01381111    -0.54044481    -0.00047564    -0.00090572     0.00034658
     6
  Step:    12            Position(A)                                  Velocity(au)
C        -0.04032644     0.03401213    -0.00848047    -0.00001970     0.00026866    -0.00122836
N        -0.04098935    -0.06383107     1.32316603    -0.00014026    -0.00009261     0.00099505
H         0.93890387    -0.08475345    -0.53432309     0.00087211    -0.00069322    -0.00068270
H         0.82524906    -0.09513500     1.83249779     0.00134139    -0.00031589     0.00148160
H        -0.94362903    -0.01692910     1.84636454     0.00048308    -0.00000219    -0.00029246
H        -0.98332153     0.00877194    -0.53862996    -0.00051265    -0.00090310     0.00030314
     6
  Step:    13            Position(A)                                  Velocity(au)
C        -0.04040527     0.03551086    -0.01545241    -0.00000820     0.00026638    -0.00125743
N        -0.04179115    -0.06434206     1.32881229    -0.00014384    -0.00008991     0.00101824
H         0.94351602    -0.08859167    -0.53801173     0.00077313    -0.00067712    -0.00063499
H         0.83293469    -0.09695046     1.84085008     0.00138363    -0.00033101     0.00149081
H        -0.94088397    -0.01701371     1.84475465     0.00048590    -0.00002651    -0.00027552
H        -0.98628245     0.00375245    -0.53706848    -0.00054600    -0.00089005     0.00025347
     6
  Step:    14            Position(A)                                  Velocity(au)
C        -0.04041819     0.03699395    -0.02255601     0.00000367     0.00026083    -0.00126469
N        -0.04259952    -0.06483754     1.33456406    -0.00014147    -0.00008630     0.00102404
H         0.94755820    -0.09233306    -0.54143112     0.00066377    -0.00065314    -0.00058190
H         0.84073728    -0.09884026     1.84918579     0.00137271    -0.00033964     0.00146381
H        -0.93818996    -0.01722580     1.84328035     0.00046077    -0.00004749    -0.00024207
H        -0.98943335    -0.00119117    -0.53579261    -0.00057492    -0.00086842     0.00019980
     6
  Step:    15            Position(A)                                  Velocity(au)
C        -0.04036402     0.03844374    -0.02967332     0.00001543     0.00025296    -0.00125478
N        -0.04338195    -0.06531249     1.34032717    -0.00013396    -0.00008208     0.00101613
H         0.95097980    -0.09593594    -0.54455489     0.00054992    -0.00062409    -0.00052692
H         0.84837020    -0.10076960     1.85730997     0.00131713    -0.00034304     0.00140795
H        -0.93570280    -0.01754775     1.84203272     0.00041029    -0.00006534    -0.00019418
H        -0.99274720    -0.00601259    -0.53482180    -0.00059951    -0.00084122     0.00014449
     6
  Step:    16            Position(A)                                  Velocity(au)
C        -0.04024414     0.03984781    -0.03671206     0.00002675     0.00024395    -0.00123378
N        -0.04411086    -0.06576353     1.34602782    -0.00012241    -0.00007760     0.00099938
H         0.95376229    -0.09937387    -0.54737568     0.00043683    -0.00059312    -0.00047346
H         0.85559682    -0.10271041     1.86506998     0.00122775    -0.00034288     0.00133240
H        -0.93356114    -0.01796295     1.84108965     0.00033846    -0.00008050    -0.00013452
H        -0.99619689    -0.01068159    -0.53416248    -0.00062065    -0.00081200     0.00008953
     6
  Step:    17            Position(A)                                  Velocity(au)
C        -0.04006175     0.04120012    -0.04361360     0.00003747     0.00023486    -0.00120769
N        -0.04476509    -0.06618931     1.35161904    -0.00010792    -0.00007320     0.00097857
H         0.95591550    -0.10263757    -0.54990444     0.00032820    -0.00056302    -0.00042415
H         0.86224242    -0.10464375     1.87236463     0.00111505    -0.00034083     0.00124578
H        -0.93187863    -0.01845731     1.84051279     0.00024955    -0.00009362    -0.00006564
H        -0.99975990    -0.01518730    -0.53381025    -0.00063954    -0.00078398     0.00003619
     6
  Step:    18            Position(A)                                  Velocity(au)
C        -0.03982097     0.04250047    -0.05035221     0.00004750     0.00022641    -0.00118085
N        -0.04532973    -0.06659025     1.35708028    -0.00009134    -0.00006906     0.00095721
H         0.95746915    -0.10573288    -0.55216622     0.00022601    -0.00053558    -0.00038052
H         0.86819069    -0.10655989     1.87914040     0.00098702    -0.00033816     0.00115434
H        -0.93074266    -0.01902030     1.84034825     0.00014734    -0.00010537     0.00001036
H        -1.00342012    -0.01953620    -0.53375376    -0.00065693    -0.00075917    -0.00001493
     6
  Step:    19            Position(A)                                  Velocity(au)
C        -0.03952627     0.04375256    -0.05692579     0.00005679     0.00021886    -0.00115530
N        -0.04579486    -0.06696780     1.36241006    -0.00007330    -0.00006523     0.00093694
H         0.95846336    -0.10867543    -0.55419415     0.00013096    -0.00051149    -0.00034307
H         0.87336949    -0.10845596     1.88537804     0.00084872    -0.00033551     0.00106152
H        -0.93021766    -0.01964522     1.84062955     0.00003506    -0.00011634     0.00009173
H        -1.00716580    -0.02374575    -0.53397854    -0.00067273    -0.00073814    -0.00006364
     6
  Step:    20            Position(A)                                  Velocity(au)
C        -0.03918241     0.04496149    -0.06334330     0.00006523     0.00021212    -0.00113120
N        -0.04615400    -0.06732371     1.36761594    -0.00005424    -0.00006165     0.00091791
H         0.95894177    -0.11148450    -0.55602391     0.00004328    -0.00049062    -0.00031169
H         0.87773438    -0.11033262     1.89107692     0.00070321    -0.00033300     0.00096868
H        -0.93034845    -0.02032854     1.84137971    -0.00008409    -0.00012694     0.00017667
H        -1.01098476    -0.02783635    -0.53446938    -0.00068593    -0.00072030    -0.00010986
     6
  Step:    21            Position(A)                                  Velocity(au)
C        -0.03879462     0.04613190    -0.06961427     0.00007266     0.00020595    -0.00110765
N        -0.04640321    -0.06765938     1.37270609    -0.00003456    -0.00005823     0.00089943
H         0.95894885    -0.11417860    -0.55769035    -0.00003677    -0.00047244    -0.00028606
H         0.88125727    -0.11219114     1.89624358     0.00055272    -0.00033043     0.00087628
H        -0.93116088    -0.02106905     1.84261129    -0.00020648    -0.00013743     0.00026309
H        -1.01485975    -0.03182524    -0.53521082    -0.00069506    -0.00070452    -0.00015340
     6
  Step:    22            Position(A)                                  Velocity(au)
C        -0.03836899     0.04726703    -0.07574325     0.00007890     0.00020006    -0.00108355
N        -0.04654084    -0.06797562     1.37768495    -0.00001471    -0.00005486     0.00088067
H         0.95853016    -0.11677341    -0.55922635    -0.00010870    -0.00045643    -0.00026588
H         0.88392203    -0.11403170     1.90088674     0.00039959    -0.00032754     0.00078472
H        -0.93265995    -0.02186708     1.84432500    -0.00032796    -0.00014802     0.00034855
H        -1.01876580    -0.03572333    -0.53618667    -0.00069858    -0.00068959    -0.00019396
     6
  Step:    23            Position(A)                                  Velocity(au)
C        -0.03791253     0.04836859    -0.08172856     0.00008377     0.00019423    -0.00105799
N        -0.04656772    -0.06827268     1.38255220     0.00000478    -0.00005144     0.00086095
H         0.95773361    -0.11928163    -0.56066290    -0.00017183    -0.00044219    -0.00025092
H         0.88572478    -0.11585308     1.90501692     0.00024649    -0.00032412     0.00069470
H        -0.93482749    -0.02272400     1.84650819    -0.00044404    -0.00015887     0.00043046
H        -1.02267006    -0.03953495    -0.53737934    -0.00069524    -0.00067448    -0.00023119
     6
  Step:    24            Position(A)                                  Velocity(au)
C        -0.03743311     0.04943708    -0.08756348     0.00008713     0.00018833    -0.00103043
N        -0.04648740    -0.06855031     1.38730371     0.00002341    -0.00004793     0.00083985
H         0.95661046    -0.12171374    -0.56202965    -0.00022545    -0.00042950    -0.00024104
H         0.88667591    -0.11765288     1.90864816     0.00009642    -0.00032007     0.00060727
H        -0.93762094    -0.02364202     1.84913424    -0.00055031    -0.00017011     0.00050629
H        -1.02653321    -0.04325882    -0.53876965    -0.00068415    -0.00065845    -0.00026480
     6
  Step:    25            Position(A)                                  Velocity(au)
C        -0.03693931     0.05047217    -0.09323810     0.00008890     0.00018227    -0.00100063
N        -0.04630626    -0.06880799     1.39193305     0.00004065    -0.00004428     0.00081724
H         0.95521543    -0.12407899    -0.56335522    -0.00026895    -0.00041827    -0.00023613
H         0.88680181    -0.11942813     1.91179991    -0.00004747    -0.00031538     0.00052372
H        -0.94097427    -0.02462406     1.85216328    -0.00064273    -0.00018187     0.00057380
H        -1.03031183    -0.04688960    -0.54033703    -0.00066492    -0.00064101    -0.00029455
     6
  Step:    26            Position(A)                                  Velocity(au)
C        -0.03644009     0.05147316    -0.09874124     0.00008903     0.00017604    -0.00096868
N        -0.04603336    -0.06904499     1.39643288     0.00005604    -0.00004050     0.00079320
H         0.95360609    -0.12638615    -0.56466734    -0.00030193    -0.00040855    -0.00023604
H         0.88614567    -0.12117585     1.91449847    -0.00018209    -0.00031013     0.00044548
H        -0.94480072    -0.02567363     1.85554402    -0.00071801    -0.00019426     0.00063122
H        -1.03396081    -0.05041937    -0.54206001    -0.00063754    -0.00062192    -0.00032038
     6
  Step:    27            Position(A)                                  Velocity(au)
C        -0.03594448     0.05243922    -0.10406201     0.00008757     0.00016966    -0.00093484
N        -0.04568012    -0.06926054     1.40079613     0.00006920    -0.00003658     0.00076792
H         0.95184167    -0.12864410    -0.56599275    -0.00032425    -0.00040044    -0.00024061
H         0.88476714    -0.12289350     1.91677759    -0.00030458    -0.00030448     0.00037394
H        -0.94899725    -0.02679472     1.85921639    -0.00077376    -0.00020738     0.00067728
H        -1.03743568    -0.05383886    -0.54391694    -0.00060242    -0.00060110    -0.00034234
     6
  Step:    28            Position(A)                                  Velocity(au)
C        -0.03546128     0.05336967    -0.10919091     0.00008457     0.00016319    -0.00089951
N        -0.04525986    -0.06945388     1.40501673     0.00007985    -0.00003253     0.00074171
H         0.94998159    -0.13086222    -0.56735690    -0.00033606    -0.00039406    -0.00024958
H         0.88274104    -0.12457933     1.91867840    -0.00041242    -0.00029861     0.00031043
H        -0.95344982    -0.02799174     1.86311471    -0.00080860    -0.00022131     0.00071135
H        -1.04069465    -0.05713844    -0.54588672    -0.00056022    -0.00057859    -0.00036062
     6
  Step:    29            Position(A)                                  Velocity(au)
C        -0.03499880     0.05426410    -0.11412056     0.00008016     0.00015670    -0.00086317
N        -0.04478724    -0.06962430     1.40909008     0.00008780    -0.00002837     0.00071489
H         0.94808381    -0.13305058    -0.56878364    -0.00033778    -0.00038959    -0.00026265
H         0.88015532    -0.12623257     1.92024883    -0.00050355    -0.00029270     0.00025606
H        -0.95803914    -0.02926941     1.86717083    -0.00082213    -0.00023611     0.00073329
H        -1.04370018    -0.06030882    -0.54794949    -0.00051184    -0.00055455    -0.00037552
     6
  Step:    30            Position(A)                                  Velocity(au)
C        -0.03456462     0.05512242    -0.11884605     0.00007449     0.00015024    -0.00082629
N        -0.04427774    -0.06977121     1.41301325     0.00009298    -0.00002412     0.00068779
H         0.94620332    -0.13522001    -0.57029479    -0.00033009    -0.00038716    -0.00027943
H         0.87710853    -0.12785342     1.92154259    -0.00057638    -0.00028695     0.00021174
H        -0.96264588    -0.03063279     1.87131710    -0.00081483    -0.00025186     0.00074348
H        -1.04641997    -0.06334142    -0.55008721    -0.00045831    -0.00052912    -0.00038743
     6
  Step:    31            Position(A)                                  Velocity(au)
C        -0.03416544     0.05594497    -0.12336510     0.00006772     0.00014389    -0.00078935
N        -0.04374703    -0.06989412     1.41678504     0.00009538    -0.00001979     0.00066071
H         0.94439077    -0.13738211    -0.57190987    -0.00031388    -0.00038693    -0.00029949
H         0.87370684    -0.12944298     1.92261780    -0.00062988    -0.00028148     0.00017812
H        -0.96715541    -0.03208725     1.87548885    -0.00078791    -0.00026865     0.00074264
H        -1.04882770    -0.06622863    -0.55228410    -0.00040070    -0.00050249    -0.00039681
     6
  Step:    32            Position(A)                                  Velocity(au)
C        -0.03380695     0.05673241    -0.12767791     0.00006003     0.00013771    -0.00075272
N        -0.04321051    -0.06999267     1.42040578     0.00009511    -0.00001541     0.00063388
H         0.94269139    -0.13954934    -0.57364575    -0.00029019    -0.00038907    -0.00032236
H         0.87006096    -0.13100285     1.92353550    -0.00066354    -0.00027634     0.00015555
H        -0.97146171    -0.03363870     1.87962637    -0.00074319    -0.00028661     0.00073180
H        -1.05090332    -0.06896368    -0.55452709    -0.00034012    -0.00047477    -0.00040417
     6
  Step:    33            Position(A)                                  Velocity(au)
C        -0.03349382     0.05748572    -0.13178656     0.00005161     0.00013175    -0.00071668
N        -0.04268288    -0.07006658     1.42387689     0.00009233    -0.00001099     0.00060744
H         0.94114408    -0.14173506    -0.57551642    -0.00026020    -0.00039377    -0.00034750
H         0.86628310    -0.13253466     1.92435808    -0.00067738    -0.00027145     0.00014414
H        -0.97547022    -0.03529381     1.88367630    -0.00068284    -0.00030591     0.00071216
H        -1.05263301    -0.07154033    -0.55680596    -0.00027766    -0.00044598    -0.00041004
     6
  Step:    34            Position(A)                                  Velocity(au)
C        -0.03322966     0.05820608    -0.13569444     0.00004264     0.00012602    -0.00068139
N        -0.04217769    -0.07011564     1.42720041     0.00008726    -0.00000654     0.00058146
H         0.93978088    -0.14395393    -0.57753280    -0.00022512    -0.00040133    -0.00037437
H         0.86248397    -0.13403920     1.92514778    -0.00067190    -0.00026653     0.00014374
H        -0.97909976    -0.03706053     1.88759233    -0.00060932    -0.00032689     0.00068495
H        -1.05400908    -0.07395231    -0.55911368    -0.00021434    -0.00041602    -0.00041502
     6
  Step:    35            Position(A)                                  Velocity(au)
C        -0.03301707     0.05889489    -0.13940578     0.00003327     0.00012057    -0.00064698
N        -0.04170710    -0.07013972     1.43037869     0.00008018    -0.00000208     0.00055598
H         0.93862677    -0.14622274    -0.57970259    -0.00018619    -0.00041233    -0.00040240
H         0.85876998    -0.13551501     1.92596531    -0.00064806    -0.00026095     0.00015398
H        -0.98228358    -0.03894904     1.89133540    -0.00052523    -0.00035010     0.00065145
H        -1.05502977    -0.07619227    -0.56144671    -0.00015122    -0.00038451    -0.00041981
     6
  Step:    36            Position(A)                                  Velocity(au)
C        -0.03285781     0.05955373    -0.14292563     0.00002364     0.00011545    -0.00061345
N        -0.04128148    -0.07013885     1.43341459     0.00007144     0.00000237     0.00053101
H         0.93769990    -0.14856248    -0.58203036    -0.00014446    -0.00042796    -0.00043108
H         0.85524065    -0.13695586     1.92686885    -0.00060730    -0.00025335     0.00017440
H        -0.98497022    -0.04097353     1.89487352    -0.00043336    -0.00037663     0.00061283
H        -1.05569923    -0.07824994    -0.56380585    -0.00008941    -0.00035056    -0.00042538
     6
  Step:    37            Position(A)                                  Velocity(au)
C        -0.03275294     0.06018451    -0.14625859     0.00001568     0.00012559    -0.00065815
N        -0.04090901    -0.07011330     1.43631058     0.00006977     0.00000763     0.00057409
H         0.93701301    -0.15100346    -0.58451816    -0.00011392    -0.00051190    -0.00052208
H         0.85198586    -0.13834517     1.92791353    -0.00062563    -0.00027278     0.00023207
H        -0.98712457    -0.04315631     1.89818123    -0.00038205    -0.00046378     0.00064666
H        -1.05602858    -0.08010836    -0.56619858    -0.00003475    -0.00035404    -0.00049190
     6
  Step:    38            Position(A)                                  Velocity(au)
C        -0.03267999     0.06088414    -0.14963180     0.00001095     0.00012476    -0.00055782
N        -0.04056019    -0.07006103     1.43929737     0.00005398     0.00001128     0.00050114
H         0.93672991    -0.15390904    -0.58780932     0.00000419    -0.00051522    -0.00064998
H         0.84872070    -0.13991544     1.92932616    -0.00053734    -0.00030364     0.00027479
H        -0.98897122    -0.04560510     1.90172333    -0.00027479    -0.00040577     0.00062116
H        -1.05635015    -0.08224677    -0.56917241    -0.00007265    -0.00041881    -0.00056309
     6
  Step:    39            Position(A)                                  Velocity(au)
C        -0.03263068     0.06157709    -0.15248483     0.00000675     0.00012229    -0.00048498
N        -0.04030654    -0.06998738     1.44190423     0.00003624     0.00001555     0.00044734
H         0.93705981    -0.15675426    -0.59177309     0.00008981    -0.00048571    -0.00074496
H         0.84598821    -0.14173438     1.93098074    -0.00043928    -0.00036208     0.00031559
H        -0.99019170    -0.04768544     1.90511452    -0.00015823    -0.00034168     0.00059043
H        -1.05683945    -0.08478300    -0.57248366    -0.00007630    -0.00048377    -0.00059849
     6
  Step:    40            Position(A)                                  Velocity(au)
C        -0.03260474     0.06224821    -0.15504168     0.00000196     0.00011783    -0.00044326
N        -0.04015590    -0.06988758     1.44428741     0.00001839     0.00002034     0.00041520
H         0.93773169    -0.15932700    -0.59611927     0.00013640    -0.00044179    -0.00079596
H         0.84382057    -0.14395433     1.93284654    -0.00033785    -0.00042572     0.00035472
H        -0.99073622    -0.04941646     1.90830952    -0.00003876    -0.00029542     0.00055162
H        -1.05720131    -0.08764311    -0.57584846    -0.00003872    -0.00052379    -0.00059832
     6
  Step:    41            Position(A)                                  Velocity(au)
C        -0.03260880     0.06289055    -0.15742570    -0.00000348     0.00011269    -0.00041570
N        -0.04010153    -0.06976067     1.44653238     0.00000156     0.00002519     0.00039281
H         0.93858026    -0.16167879    -0.60064544     0.00016216    -0.00040678    -0.00082256
H         0.84222224    -0.14647978     1.93493466    -0.00023561    -0.00047551     0.00039594
H        -0.99062378    -0.05097843     1.91126324     0.00007642    -0.00027260     0.00050777
H        -1.05727108    -0.09062156    -0.57915294     0.00001682    -0.00053799    -0.00058627
     6
  Step:    42            Position(A)                                  Velocity(au)
C        -0.03264350     0.06350337    -0.15967191    -0.00000880     0.00010748    -0.00039277
N        -0.04013851    -0.06960696     1.44866266    -0.00001443     0.00003000     0.00037349
H         0.93953787    -0.16385792    -0.60528131     0.00017746    -0.00037803    -0.00083932
H         0.84119619    -0.14925074     1.93725676    -0.00013382    -0.00051749     0.00043823
H        -0.98988503    -0.05245279     1.91396527     0.00018565    -0.00026037     0.00046331
H        -1.05701392    -0.09363555    -0.58237859     0.00007605    -0.00054173    -0.00057212
     6
  Step:    43            Position(A)                                  Velocity(au)
C        -0.03270671     0.06408686    -0.16179739    -0.00001363     0.00010231    -0.00037238
N        -0.04026212    -0.06942678     1.45068946    -0.00002949     0.00003474     0.00035582
H         0.94055551    -0.16588642    -0.60998739     0.00018445    -0.00035201    -0.00084981
H         0.84073281    -0.15223963     1.93981239    -0.00003499    -0.00055575     0.00047946
H        -0.98855743    -0.05387642     1.91642013     0.00028749    -0.00025314     0.00042038
H        -1.05642462    -0.09665121    -0.58552084     0.00013530    -0.00054105    -0.00055742
     6
  Step:    44            Position(A)                                  Velocity(au)
C        -0.03279514     0.06464136    -0.16381379    -0.00001782     0.00009719    -0.00035381
N        -0.04046649    -0.06922051     1.45262041    -0.00004338     0.00003942     0.00033936
H         0.94158946    -0.16777327    -0.61473350     0.00018383    -0.00032696    -0.00085521
H         0.84080698    -0.15543220     1.94258964     0.00005807    -0.00059198     0.00051766
H        -0.98668736    -0.05526843     1.91864103     0.00038027    -0.00024858     0.00038033
H        -1.05550900    -0.09965356    -0.58857865     0.00019300    -0.00053847    -0.00054266
     6