     6
  Step:   300            Position(A)                                  Velocity(au)
C        -0.03710147     0.01247449     0.02137423    -0.00003423    -0.00000118     0.00012628
N        -0.04007865    -0.05439556     1.29565290     0.00003522     0.00000392    -0.00008567
H         0.10458028    -0.86322914    -0.61125471     0.00131464     0.00017240     0.00006389
H        -0.13303365     0.76593887     1.89892323     0.00122941     0.00015941    -0.00013116
H        -0.01243036    -0.93363767     1.82545949    -0.00146903    -0.00018358    -0.00017593
H        -0.17300335     0.96843090    -0.48060922    -0.00115651    -0.00018866    -0.00007100
