|===============================================================================
|
|  DFTB+ release 20.1
|
|  Copyright (C) 2006 - 2020  DFTB+ developers group
|
|===============================================================================
|
|  When publishing results obtained with DFTB+, please cite the following
|  reference:
|
|  * DFTB+, a software package for efficient approximate density functional
|    theory based atomistic simulations, J. Chem. Phys. 152, 124101 (2020).
|    [doi: 10.1063/1.5143190]
|
|  You should also cite additional publications crediting the parametrization
|  data you use. Please consult the documentation of the SK-files for the
|  references.
|
|===============================================================================

Reading input file 'dftb_in.hsd'
Parser version: 8

--------------------------------------------------------------------------------
Reading SK-files:
Done.


Processed input in HSD format written to 'dftb_pin.hsd'

Starting initialization...
--------------------------------------------------------------------------------
OpenMP threads:              1
Chosen random seed:          449412769
Mode:                        Static calculation
Self consistent charges:     Yes
SCC-tolerance:                 0.100000E-05
Max. scc iterations:                   1000
Shell resolved Hubbard:      No
Spin polarisation:           No
Nr. of up electrons:             6.000000
Nr. of down electrons:           6.000000
Periodic boundaries:         No
Electronic solver:           Relatively robust
Maximal SCC-cycles:                    1000
Initial charges:             Set automatically (system chrg:   0.100E+01)
Included shells:             C:  s, p
                             N:  s, p
                             H:  s
Spin coupling constants:     C   1(s)-1(s):  -0.455900E-01
                             C   1(s)-2(p):  -0.293000E-01
                             C   2(p)-1(s):  -0.293000E-01
                             C   2(p)-2(p):  -0.275500E-01
                             N   1(s)-1(s):  -0.468700E-01
                             N   1(s)-2(p):  -0.317000E-01
                             N   2(p)-1(s):  -0.317000E-01
                             N   2(p)-2(p):  -0.307200E-01
                             H   1(s)-1(s):  -0.792500E-01
Range separated hybrid:      Yes
  Screening parameter omega:   0.300000E+00
  Range separated algorithm:   MatrixBased
Extra options:
                             Mulliken analysis
                             Force calculation
Force type                   original
                             Eigenvector printing


REKS Calcuation:             Yes
SSR(2,2) Calcuation:         Yes
Energy Functional:           (PPS+OSS)/2
Number of Core Orbitals:                  5
Number of Active Orbitals:                2
Number of Basis:                         12
Number of States:                         2
State-Averaging Weight:          0.500000
                                 0.500000
State of Interest:                        1
Initial Guess:               Diagonalize H0 matrix
Newton-Raphson for FON opt:  Yes
NR max. Iterations:                      50
Level Shifting:              Yes
Shift Value:                     0.300000
W Scale Factor:              C  =    3.200000
                             N  =    3.200000
                             H  =    3.200000
Transition Dipole:           No
Gradient of Microstate:      No
CP-REKS Solver:              Preconditioned Conjugate-Gradient
CG max. Iterations:                     100
CG Tolerance:                  0.100000E-07
Memory for A and Hxc:        Direct Updating Without Saving
Non-Adiabatic Coupling:      Yes

--------------------------------------------------------------------------------

***  Geometry step: 0

  iSCC       reks energy        Diff energy         x_a       SCC error   
    1       -6.0968123238       0.0000000000     0.815566    1.13870907
    2       -6.1144215028      -0.0176091790     0.864452    0.12210233
    3       -6.1288315631      -0.0144100603     0.950821    0.12749094
    4       -6.1432512656      -0.0144197025     0.999821    0.08276490
    5       -6.1476475334      -0.0043962678     0.999999    0.04391323
    6       -6.1491903358      -0.0015428023     0.999998    0.01702611
    7       -6.1499750921      -0.0007847563     1.000000    0.02110844
    8       -6.1503814894      -0.0004063973     0.999999    0.00934378
    9       -6.1505932253      -0.0002117359     1.000000    0.01199367
   10       -6.1507054032      -0.0001121779     1.000000    0.00452334
   11       -6.1507660640      -0.0000606607     1.000000    0.00746324
   12       -6.1507993037      -0.0000332397     1.000000    0.00435935
   13       -6.1508182402      -0.0000189365     1.000000    0.00537825
   14       -6.1508284164      -0.0000101762     1.000000    0.00465595
   15       -6.1508343852      -0.0000059688     1.000000    0.00461361
   16       -6.1508364962      -0.0000021110     1.000000    0.00521206
   17       -6.1508375793      -0.0000010831     1.000000    0.00533250
   18       -6.1508358414       0.0000017379     1.000000    0.00599369
   19       -6.1508345080       0.0000013334     1.000000    0.00628224
   20       -6.1508299359       0.0000045721     1.000000    0.00699547
   21       -6.1508269601       0.0000029759     1.000000    0.00743789
   22       -6.1508193404       0.0000076197     1.000000    0.00822905
   23       -6.1508149331       0.0000044072     1.000000    0.00882062
   24       -6.1508033211       0.0000116120     0.999999    0.00971592
   25       -6.1507975463       0.0000057747     1.000000    0.01045721
   26       -6.1507803145       0.0000172318     0.999999    0.01148226
   27       -6.1507733441       0.0000069704     1.000000    0.01237572
   28       -6.1507480603       0.0000252838     0.999999    0.01355402
   29       -6.1507404563       0.0000076040     1.000000    0.01460048
   30       -6.1507036929       0.0000367635     0.999999    0.01595067
   31       -6.1506968059       0.0000068869     1.000000    0.01714516
   32       -6.1506439654       0.0000528405     0.999999    0.01867662
   33       -6.1506404864       0.0000034791     1.000000    0.02000350
   34       -6.1505657732       0.0000747131     0.999999    0.02171025
   35       -6.1505703827      -0.0000046095     1.000000    0.02313827
   36       -6.1504671040       0.0001032787     0.999998    0.02499199
   37       -6.1504869932      -0.0000198892     1.000000    0.02647110
   38       -6.1503483718       0.0001386213     0.999998    0.02841563
   39       -6.1503931898      -0.0000448179     1.000000    0.02987828
   40       -6.1502137097       0.0001794801     0.999997    0.03182972
   41       -6.1502944232      -0.0000807135     1.000000    0.03319913
   42       -6.1500713692       0.0002230539     0.999996    0.03505570
   43       -6.1501979024      -0.0001265332     1.000000    0.03626072
   44       -6.1499324061       0.0002654963     0.999995    0.03792266
   45       -6.1501107985      -0.0001783924     1.000000    0.03891437
   46       -6.1498077444       0.0003030541     0.999995    0.04030756
   47       -6.1500382737      -0.0002305293     1.000000    0.04106953
   48       -6.1497050229       0.0003332507     0.999994    0.04216179
   49       -6.1499823847      -0.0002773618     1.000000    0.04270912
   50       -6.1496269719       0.0003554129     0.999993    0.04351144
   51       -6.1499422924      -0.0003153205     1.000000    0.04388020
   52       -6.1495719254       0.0003703670     0.999992    0.04443449
   53       -6.1499153457      -0.0003434204     1.000000    0.04466829
   54       -6.1495356396       0.0003797062     0.999992    0.04502993
   55       -6.1498982874      -0.0003626478     1.000000    0.04516963
   56       -6.1495131673       0.0003851201     0.999992    0.04539308
   57       -6.1498880930      -0.0003749257     1.000000    0.04547150
   58       -6.1495000739       0.0003880191     0.999992    0.04560223
   59       -6.1498823555      -0.0003822816     1.000000    0.04564312
   60       -6.1494929313       0.0003894242     0.999992    0.04571518
   61       -6.1498793454      -0.0003864141     1.000000    0.04573442
   62       -6.1494893407       0.0003900047     0.999992    0.04577132
   63       -6.1498779108      -0.0003885701     1.000000    0.04577886
   64       -6.1494877440       0.0003901668     0.999992    0.04579586
   65       -6.1498773306      -0.0003895867     1.000000    0.04579759
   66       -6.1494871898       0.0003901408     0.999992    0.04580401
   67       -6.1498771784      -0.0003899886     1.000000    0.04580322
   68       -6.1494871305       0.0003900478     0.999992    0.04580449
   69       -6.1498772158      -0.0003900852     1.000000    0.04580286
   70       -6.1494872700       0.0003899458     0.999992    0.04580196
   71       -6.1498773187      -0.0003900487     1.000000    0.04580029
   72       -6.1494874604       0.0003898583     0.999992    0.04579872
   73       -6.1498774285      -0.0003899680     1.000000    0.04579733
   74       -6.1494876368       0.0003897917     0.999992    0.04579579
   75       -6.1498775215      -0.0003898847     1.000000    0.04579475
   76       -6.1494877766       0.0003897449     0.999992    0.04579349
   77       -6.1498775917      -0.0003898151     1.000000    0.04579276
   78       -6.1494878779       0.0003897138     0.999992    0.04579183
   79       -6.1498776408      -0.0003897629     1.000000    0.04579135
   80       -6.1494879467       0.0003896942     0.999992    0.04579071
   81       -6.1498776733      -0.0003897266     1.000000    0.04579040
   82       -6.1494879910       0.0003896824     0.999992    0.04578999
   83       -6.1498776937      -0.0003897028     1.000000    0.04578981
   84       -6.1494880181       0.0003896756     0.999992    0.04578955
   85       -6.1498777060      -0.0003896878     1.000000    0.04578944
   86       -6.1494880339       0.0003896720     0.999992    0.04578930
   87       -6.1498777129      -0.0003896790     1.000000    0.04578924
   88       -6.1494880426       0.0003896702     0.999992    0.04578915
   89       -6.1498777166      -0.0003896739     1.000000    0.04578913
   90       -6.1494880471       0.0003896695     0.999992    0.04578908
   91       -6.1498777184      -0.0003896713     1.000000    0.04578907
   92       -6.1494880491       0.0003896692     0.999992    0.04578905
   93       -6.1498777191      -0.0003896700     1.000000    0.04578904
   94       -6.1494880499       0.0003896692     0.999992    0.04578904
   95       -6.1498777193      -0.0003896695     1.000000    0.04578904
   96       -6.1494880500       0.0003896693     0.999992    0.04578904
   97       -6.1498777193      -0.0003896693     1.000000    0.04578904
   98       -6.1494880499       0.0003896694     0.999992    0.04578904
   99       -6.1498777192      -0.0003896693     1.000000    0.04578904
  100       -6.1494880497       0.0003896696     0.999992    0.04578904
  101       -6.1498777191      -0.0003896694     1.000000    0.04578904
  102       -6.1494880495       0.0003896696     0.999992    0.04578904
  103       -6.1498777190      -0.0003896695     1.000000    0.04578904
  104       -6.1494880493       0.0003896697     0.999992    0.04578905
  105       -6.1498777189      -0.0003896696     1.000000    0.04578905
  106       -6.1494880491       0.0003896697     0.999992    0.04578905
  107       -6.1498777188      -0.0003896697     1.000000    0.04578905
  108       -6.1494880491       0.0003896698     0.999992    0.04578905
  109       -6.1498777188      -0.0003896697     1.000000    0.04578905
  110       -6.1494880490       0.0003896698     0.999992    0.04578905
  111       -6.1498777187      -0.0003896697     1.000000    0.04578905
  112       -6.1494880490       0.0003896698     0.999992    0.04578905
  113       -6.1498777187      -0.0003896698     1.000000    0.04578905
  114       -6.1494880489       0.0003896698     0.999992    0.04578905
  115       -6.1498777187      -0.0003896698     1.000000    0.04578905
  116       -6.1494880489       0.0003896698     0.999992    0.04578905
  117       -6.1498777187      -0.0003896698     1.000000    0.04578905
  118       -6.1494880489       0.0003896698     0.999992    0.04578905
  119       -6.1498777187      -0.0003896698     1.000000    0.04578905
  120       -6.1494880489       0.0003896698     0.999992    0.04578905
  121       -6.1498777187      -0.0003896698     1.000000    0.04578905
  122       -6.1494880489       0.0003896698     0.999992    0.04578905
  123       -6.1498777187      -0.0003896698     1.000000    0.04578905
  124       -6.1494880489       0.0003896698     0.999992    0.04578905
  125       -6.1498777187      -0.0003896698     1.000000    0.04578905
  126       -6.1494880489       0.0003896698     0.999992    0.04578905
  127       -6.1498777187      -0.0003896698     1.000000    0.04578905
  128       -6.1494880489       0.0003896698     0.999992    0.04578905
  129       -6.1498777187      -0.0003896698     1.000000    0.04578905
  130       -6.1494880489       0.0003896698     0.999992    0.04578905
  131       -6.1498777187      -0.0003896698     1.000000    0.04578905
  132       -6.1494880489       0.0003896698     0.999992    0.04578905
  133       -6.1498777187      -0.0003896698     1.000000    0.04578905
  134       -6.1494880489       0.0003896698     0.999992    0.04578905
  135       -6.1498777187      -0.0003896698     1.000000    0.04578905
  136       -6.1494880489       0.0003896698     0.999992    0.04578905
  137       -6.1498777187      -0.0003896698     1.000000    0.04578905
  138       -6.1494880489       0.0003896698     0.999992    0.04578905
  139       -6.1498777187      -0.0003896698     1.000000    0.04578905
  140       -6.1494880489       0.0003896698     0.999992    0.04578905
  141       -6.1498777187      -0.0003896698     1.000000    0.04578905
  142       -6.1494880489       0.0003896698     0.999992    0.04578905
  143       -6.1498777187      -0.0003896698     1.000000    0.04578905
  144       -6.1494880489       0.0003896698     0.999992    0.04578905
  145       -6.1498777187      -0.0003896698     1.000000    0.04578905
  146       -6.1494880489       0.0003896698     0.999992    0.04578905
  147       -6.1498777187      -0.0003896698     1.000000    0.04578905
  148       -6.1494880489       0.0003896698     0.999992    0.04578905
  149       -6.1498777187      -0.0003896698     1.000000    0.04578905
  150       -6.1494880489       0.0003896698     0.999992    0.04578905
  151       -6.1498777187      -0.0003896698     1.000000    0.04578905
  152       -6.1494880489       0.0003896698     0.999992    0.04578905
  153       -6.1498777187      -0.0003896698     1.000000    0.04578905
  154       -6.1494880489       0.0003896698     0.999992    0.04578905
  155       -6.1498777187      -0.0003896698     1.000000    0.04578905
  156       -6.1494880489       0.0003896698     0.999992    0.04578905
  157       -6.1498777187      -0.0003896698     1.000000    0.04578905
  158       -6.1494880489       0.0003896698     0.999992    0.04578905
  159       -6.1498777187      -0.0003896698     1.000000    0.04578905
  160       -6.1494880489       0.0003896698     0.999992    0.04578905
  161       -6.1498777187      -0.0003896698     1.000000    0.04578905
  162       -6.1494880489       0.0003896698     0.999992    0.04578905
  163       -6.1498777187      -0.0003896698     1.000000    0.04578905
  164       -6.1494880489       0.0003896698     0.999992    0.04578905
  165       -6.1498777187      -0.0003896698     1.000000    0.04578905
  166       -6.1494880489       0.0003896698     0.999992    0.04578905
  167       -6.1498777187      -0.0003896698     1.000000    0.04578905
  168       -6.1494880489       0.0003896698     0.999992    0.04578905
  169       -6.1498777187      -0.0003896698     1.000000    0.04578905
  170       -6.1494880489       0.0003896698     0.999992    0.04578905
  171       -6.1498777187      -0.0003896698     1.000000    0.04578905
  172       -6.1494880489       0.0003896698     0.999992    0.04578905
  173       -6.1498777187      -0.0003896698     1.000000    0.04578905
  174       -6.1494880489       0.0003896698     0.999992    0.04578905
  175       -6.1498777187      -0.0003896698     1.000000    0.04578905
  176       -6.1494880489       0.0003896698     0.999992    0.04578905
  177       -6.1498777187      -0.0003896698     1.000000    0.04578905
  178       -6.1494880489       0.0003896698     0.999992    0.04578905
  179       -6.1498777187      -0.0003896698     1.000000    0.04578905
  180       -6.1494880489       0.0003896698     0.999992    0.04578905
  181       -6.1498777187      -0.0003896698     1.000000    0.04578905
  182       -6.1494880489       0.0003896698     0.999992    0.04578905
  183       -6.1498777187      -0.0003896698     1.000000    0.04578905
  184       -6.1494880489       0.0003896698     0.999992    0.04578905
  185       -6.1498777187      -0.0003896698     1.000000    0.04578905
  186       -6.1494880489       0.0003896698     0.999992    0.04578905
  187       -6.1498777187      -0.0003896698     1.000000    0.04578905
  188       -6.1494880489       0.0003896698     0.999992    0.04578905
  189       -6.1498777187      -0.0003896698     1.000000    0.04578905
  190       -6.1494880489       0.0003896698     0.999992    0.04578905
  191       -6.1498777187      -0.0003896698     1.000000    0.04578905
  192       -6.1494880489       0.0003896698     0.999992    0.04578905
  193       -6.1498777187      -0.0003896698     1.000000    0.04578905
  194       -6.1494880489       0.0003896698     0.999992    0.04578905
  195       -6.1498777187      -0.0003896698     1.000000    0.04578905
  196       -6.1494880489       0.0003896698     0.999992    0.04578905
  197       -6.1498777187      -0.0003896698     1.000000    0.04578905
  198       -6.1494880489       0.0003896698     0.999992    0.04578905
  199       -6.1498777187      -0.0003896698     1.000000    0.04578905
  200       -6.1494880489       0.0003896698     0.999992    0.04578905
  201       -6.1498777187      -0.0003896698     1.000000    0.04578905
  202       -6.1494880489       0.0003896698     0.999992    0.04578905
  203       -6.1498777187      -0.0003896698     1.000000    0.04578905
  204       -6.1494880489       0.0003896698     0.999992    0.04578905
  205       -6.1498777187      -0.0003896698     1.000000    0.04578905
  206       -6.1494880489       0.0003896698     0.999992    0.04578905
  207       -6.1498777187      -0.0003896698     1.000000    0.04578905
  208       -6.1494880489       0.0003896698     0.999992    0.04578905
  209       -6.1498777187      -0.0003896698     1.000000    0.04578905
  210       -6.1494880489       0.0003896698     0.999992    0.04578905
  211       -6.1498777187      -0.0003896698     1.000000    0.04578905
  212       -6.1494880489       0.0003896698     0.999992    0.04578905
  213       -6.1498777187      -0.0003896698     1.000000    0.04578905
  214       -6.1494880489       0.0003896698     0.999992    0.04578905
  215       -6.1498777187      -0.0003896698     1.000000    0.04578905
  216       -6.1494880489       0.0003896698     0.999992    0.04578905
  217       -6.1498777187      -0.0003896698     1.000000    0.04578905
  218       -6.1494880489       0.0003896698     0.999992    0.04578905
  219       -6.1498777187      -0.0003896698     1.000000    0.04578905
  220       -6.1494880489       0.0003896698     0.999992    0.04578905
  221       -6.1498777187      -0.0003896698     1.000000    0.04578905
  222       -6.1494880489       0.0003896698     0.999992    0.04578905
  223       -6.1498777187      -0.0003896698     1.000000    0.04578905
  224       -6.1494880489       0.0003896698     0.999992    0.04578905
  225       -6.1498777187      -0.0003896698     1.000000    0.04578905
  226       -6.1494880489       0.0003896698     0.999992    0.04578905
  227       -6.1498777187      -0.0003896698     1.000000    0.04578905
  228       -6.1494880489       0.0003896698     0.999992    0.04578905
  229       -6.1498777187      -0.0003896698     1.000000    0.04578905
  230       -6.1494880489       0.0003896698     0.999992    0.04578905
  231       -6.1498777187      -0.0003896698     1.000000    0.04578905
  232       -6.1494880489       0.0003896698     0.999992    0.04578905
  233       -6.1498777187      -0.0003896698     1.000000    0.04578905
  234       -6.1494880489       0.0003896698     0.999992    0.04578905
  235       -6.1498777187      -0.0003896698     1.000000    0.04578905
  236       -6.1494880489       0.0003896698     0.999992    0.04578905
  237       -6.1498777187      -0.0003896698     1.000000    0.04578905
  238       -6.1494880489       0.0003896698     0.999992    0.04578905
  239       -6.1498777187      -0.0003896698     1.000000    0.04578905
  240       -6.1494880489       0.0003896698     0.999992    0.04578905
  241       -6.1498777187      -0.0003896698     1.000000    0.04578905
  242       -6.1494880489       0.0003896698     0.999992    0.04578905
  243       -6.1498777187      -0.0003896698     1.000000    0.04578905
  244       -6.1494880489       0.0003896698     0.999992    0.04578905
  245       -6.1498777187      -0.0003896698     1.000000    0.04578905
  246       -6.1494880489       0.0003896698     0.999992    0.04578905
  247       -6.1498777187      -0.0003896698     1.000000    0.04578905
  248       -6.1494880489       0.0003896698     0.999992    0.04578905
  249       -6.1498777187      -0.0003896698     1.000000    0.04578905
  250       -6.1494880489       0.0003896698     0.999992    0.04578905
  251       -6.1498777187      -0.0003896698     1.000000    0.04578905
  252       -6.1494880489       0.0003896698     0.999992    0.04578905
  253       -6.1498777187      -0.0003896698     1.000000    0.04578905
  254       -6.1494880489       0.0003896698     0.999992    0.04578905
  255       -6.1498777187      -0.0003896698     1.000000    0.04578905
  256       -6.1494880489       0.0003896698     0.999992    0.04578905
  257       -6.1498777187      -0.0003896698     1.000000    0.04578905
  258       -6.1494880489       0.0003896698     0.999992    0.04578905
  259       -6.1498777187      -0.0003896698     1.000000    0.04578905
  260       -6.1494880489       0.0003896698     0.999992    0.04578905
  261       -6.1498777187      -0.0003896698     1.000000    0.04578905
  262       -6.1494880489       0.0003896698     0.999992    0.04578905
  263       -6.1498777187      -0.0003896698     1.000000    0.04578905
  264       -6.1494880489       0.0003896698     0.999992    0.04578905
  265       -6.1498777187      -0.0003896698     1.000000    0.04578905
  266       -6.1494880489       0.0003896698     0.999992    0.04578905
  267       -6.1498777187      -0.0003896698     1.000000    0.04578905
  268       -6.1494880489       0.0003896698     0.999992    0.04578905
  269       -6.1498777187      -0.0003896698     1.000000    0.04578905
  270       -6.1494880489       0.0003896698     0.999992    0.04578905
  271       -6.1498777187      -0.0003896698     1.000000    0.04578905
  272       -6.1494880489       0.0003896698     0.999992    0.04578905
  273       -6.1498777187      -0.0003896698     1.000000    0.04578905
  274       -6.1494880489       0.0003896698     0.999992    0.04578905
  275       -6.1498777187      -0.0003896698     1.000000    0.04578905
  276       -6.1494880489       0.0003896698     0.999992    0.04578905
  277       -6.1498777187      -0.0003896698     1.000000    0.04578905
  278       -6.1494880489       0.0003896698     0.999992    0.04578905
  279       -6.1498777187      -0.0003896698     1.000000    0.04578905
  280       -6.1494880489       0.0003896698     0.999992    0.04578905
  281       -6.1498777187      -0.0003896698     1.000000    0.04578905
  282       -6.1494880489       0.0003896698     0.999992    0.04578905
  283       -6.1498777187      -0.0003896698     1.000000    0.04578905
  284       -6.1494880489       0.0003896698     0.999992    0.04578905
  285       -6.1498777187      -0.0003896698     1.000000    0.04578905
  286       -6.1494880489       0.0003896698     0.999992    0.04578905
  287       -6.1498777187      -0.0003896698     1.000000    0.04578905
  288       -6.1494880489       0.0003896698     0.999992    0.04578905
  289       -6.1498777187      -0.0003896698     1.000000    0.04578905
  290       -6.1494880489       0.0003896698     0.999992    0.04578905
  291       -6.1498777187      -0.0003896698     1.000000    0.04578905
  292       -6.1494880489       0.0003896698     0.999992    0.04578905
  293       -6.1498777187      -0.0003896698     1.000000    0.04578905
  294       -6.1494880489       0.0003896698     0.999992    0.04578905
  295       -6.1498777187      -0.0003896698     1.000000    0.04578905
  296       -6.1494880489       0.0003896698     0.999992    0.04578905
  297       -6.1498777187      -0.0003896698     1.000000    0.04578905
  298       -6.1494880489       0.0003896698     0.999992    0.04578905
  299       -6.1498777187      -0.0003896698     1.000000    0.04578905
  300       -6.1494880489       0.0003896698     0.999992    0.04578905
  301       -6.1498777187      -0.0003896698     1.000000    0.04578905
  302       -6.1494880489       0.0003896698     0.999992    0.04578905
  303       -6.1498777187      -0.0003896698     1.000000    0.04578905
  304       -6.1494880489       0.0003896698     0.999992    0.04578905
  305       -6.1498777187      -0.0003896698     1.000000    0.04578905
  306       -6.1494880489       0.0003896698     0.999992    0.04578905
  307       -6.1498777187      -0.0003896698     1.000000    0.04578905
  308       -6.1494880489       0.0003896698     0.999992    0.04578905
  309       -6.1498777187      -0.0003896698     1.000000    0.04578905
  310       -6.1494880489       0.0003896698     0.999992    0.04578905
  311       -6.1498777187      -0.0003896698     1.000000    0.04578905
  312       -6.1494880489       0.0003896698     0.999992    0.04578905
  313       -6.1498777187      -0.0003896698     1.000000    0.04578905
  314       -6.1494880489       0.0003896698     0.999992    0.04578905
  315       -6.1498777187      -0.0003896698     1.000000    0.04578905
  316       -6.1494880489       0.0003896698     0.999992    0.04578905
  317       -6.1498777187      -0.0003896698     1.000000    0.04578905
  318       -6.1494880489       0.0003896698     0.999992    0.04578905
  319       -6.1498777187      -0.0003896698     1.000000    0.04578905
  320       -6.1494880489       0.0003896698     0.999992    0.04578905
  321       -6.1498777187      -0.0003896698     1.000000    0.04578905
  322       -6.1494880489       0.0003896698     0.999992    0.04578905
  323       -6.1498777187      -0.0003896698     1.000000    0.04578905
  324       -6.1494880489       0.0003896698     0.999992    0.04578905
  325       -6.1498777187      -0.0003896698     1.000000    0.04578905
  326       -6.1494880489       0.0003896698     0.999992    0.04578905
  327       -6.1498777187      -0.0003896698     1.000000    0.04578905
  328       -6.1494880489       0.0003896698     0.999992    0.04578905
  329       -6.1498777187      -0.0003896698     1.000000    0.04578905
  330       -6.1494880489       0.0003896698     0.999992    0.04578905
  331       -6.1498777187      -0.0003896698     1.000000    0.04578905
  332       -6.1494880489       0.0003896698     0.999992    0.04578905
  333       -6.1498777187      -0.0003896698     1.000000    0.04578905
  334       -6.1494880489       0.0003896698     0.999992    0.04578905
  335       -6.1498777187      -0.0003896698     1.000000    0.04578905
  336       -6.1494880489       0.0003896698     0.999992    0.04578905
  337       -6.1498777187      -0.0003896698     1.000000    0.04578905
  338       -6.1494880489       0.0003896698     0.999992    0.04578905
  339       -6.1498777187      -0.0003896698     1.000000    0.04578905
  340       -6.1494880489       0.0003896698     0.999992    0.04578905
  341       -6.1498777187      -0.0003896698     1.000000    0.04578905
  342       -6.1494880489       0.0003896698     0.999992    0.04578905
  343       -6.1498777187      -0.0003896698     1.000000    0.04578905
  344       -6.1494880489       0.0003896698     0.999992    0.04578905
  345       -6.1498777187      -0.0003896698     1.000000    0.04578905
  346       -6.1494880489       0.0003896698     0.999992    0.04578905
  347       -6.1498777187      -0.0003896698     1.000000    0.04578905
  348       -6.1494880489       0.0003896698     0.999992    0.04578905
  349       -6.1498777187      -0.0003896698     1.000000    0.04578905
  350       -6.1494880489       0.0003896698     0.999992    0.04578905
  351       -6.1498777187      -0.0003896698     1.000000    0.04578905
  352       -6.1494880489       0.0003896698     0.999992    0.04578905
  353       -6.1498777187      -0.0003896698     1.000000    0.04578905
  354       -6.1494880489       0.0003896698     0.999992    0.04578905
  355       -6.1498777187      -0.0003896698     1.000000    0.04578905
  356       -6.1494880489       0.0003896698     0.999992    0.04578905
  357       -6.1498777187      -0.0003896698     1.000000    0.04578905
  358       -6.1494880489       0.0003896698     0.999992    0.04578905
  359       -6.1498777187      -0.0003896698     1.000000    0.04578905
  360       -6.1494880489       0.0003896698     0.999992    0.04578905
  361       -6.1498777187      -0.0003896698     1.000000    0.04578905
  362       -6.1494880489       0.0003896698     0.999992    0.04578905
  363       -6.1498777187      -0.0003896698     1.000000    0.04578905
  364       -6.1494880489       0.0003896698     0.999992    0.04578905
  365       -6.1498777187      -0.0003896698     1.000000    0.04578905
  366       -6.1494880489       0.0003896698     0.999992    0.04578905
  367       -6.1498777187      -0.0003896698     1.000000    0.04578905
  368       -6.1494880489       0.0003896698     0.999992    0.04578905
  369       -6.1498777187      -0.0003896698     1.000000    0.04578905
  370       -6.1494880489       0.0003896698     0.999992    0.04578905
  371       -6.1498777187      -0.0003896698     1.000000    0.04578905
  372       -6.1494880489       0.0003896698     0.999992    0.04578905
  373       -6.1498777187      -0.0003896698     1.000000    0.04578905
  374       -6.1494880489       0.0003896698     0.999992    0.04578905
  375       -6.1498777187      -0.0003896698     1.000000    0.04578905
  376       -6.1494880489       0.0003896698     0.999992    0.04578905
  377       -6.1498777187      -0.0003896698     1.000000    0.04578905
  378       -6.1494880489       0.0003896698     0.999992    0.04578905
  379       -6.1498777187      -0.0003896698     1.000000    0.04578905
  380       -6.1494880489       0.0003896698     0.999992    0.04578905
  381       -6.1498777187      -0.0003896698     1.000000    0.04578905
  382       -6.1494880489       0.0003896698     0.999992    0.04578905
  383       -6.1498777187      -0.0003896698     1.000000    0.04578905
  384       -6.1494880489       0.0003896698     0.999992    0.04578905
  385       -6.1498777187      -0.0003896698     1.000000    0.04578905
  386       -6.1494880489       0.0003896698     0.999992    0.04578905
  387       -6.1498777187      -0.0003896698     1.000000    0.04578905
  388       -6.1494880489       0.0003896698     0.999992    0.04578905
  389       -6.1498777187      -0.0003896698     1.000000    0.04578905
  390       -6.1494880489       0.0003896698     0.999992    0.04578905
  391       -6.1498777187      -0.0003896698     1.000000    0.04578905
  392       -6.1494880489       0.0003896698     0.999992    0.04578905
  393       -6.1498777187      -0.0003896698     1.000000    0.04578905
  394       -6.1494880489       0.0003896698     0.999992    0.04578905
  395       -6.1498777187      -0.0003896698     1.000000    0.04578905
  396       -6.1494880489       0.0003896698     0.999992    0.04578905
  397       -6.1498777187      -0.0003896698     1.000000    0.04578905
  398       -6.1494880489       0.0003896698     0.999992    0.04578905
  399       -6.1498777187      -0.0003896698     1.000000    0.04578905
  400       -6.1494880489       0.0003896698     0.999992    0.04578905
  401       -6.1498777187      -0.0003896698     1.000000    0.04578905
  402       -6.1494880489       0.0003896698     0.999992    0.04578905
  403       -6.1498777187      -0.0003896698     1.000000    0.04578905
  404       -6.1494880489       0.0003896698     0.999992    0.04578905
  405       -6.1498777187      -0.0003896698     1.000000    0.04578905
  406       -6.1494880489       0.0003896698     0.999992    0.04578905
  407       -6.1498777187      -0.0003896698     1.000000    0.04578905
  408       -6.1494880489       0.0003896698     0.999992    0.04578905
  409       -6.1498777187      -0.0003896698     1.000000    0.04578905
  410       -6.1494880489       0.0003896698     0.999992    0.04578905
  411       -6.1498777187      -0.0003896698     1.000000    0.04578905
  412       -6.1494880489       0.0003896698     0.999992    0.04578905
  413       -6.1498777187      -0.0003896698     1.000000    0.04578905
  414       -6.1494880489       0.0003896698     0.999992    0.04578905
  415       -6.1498777187      -0.0003896698     1.000000    0.04578905
  416       -6.1494880489       0.0003896698     0.999992    0.04578905
  417       -6.1498777187      -0.0003896698     1.000000    0.04578905
  418       -6.1494880489       0.0003896698     0.999992    0.04578905
  419       -6.1498777187      -0.0003896698     1.000000    0.04578905
  420       -6.1494880489       0.0003896698     0.999992    0.04578905
  421       -6.1498777187      -0.0003896698     1.000000    0.04578905
  422       -6.1494880489       0.0003896698     0.999992    0.04578905
  423       -6.1498777187      -0.0003896698     1.000000    0.04578905
  424       -6.1494880489       0.0003896698     0.999992    0.04578905
  425       -6.1498777187      -0.0003896698     1.000000    0.04578905
  426       -6.1494880489       0.0003896698     0.999992    0.04578905
  427       -6.1498777187      -0.0003896698     1.000000    0.04578905
  428       -6.1494880489       0.0003896698     0.999992    0.04578905
  429       -6.1498777187      -0.0003896698     1.000000    0.04578905
  430       -6.1494880489       0.0003896698     0.999992    0.04578905
  431       -6.1498777187      -0.0003896698     1.000000    0.04578905
  432       -6.1494880489       0.0003896698     0.999992    0.04578905
  433       -6.1498777187      -0.0003896698     1.000000    0.04578905
  434       -6.1494880489       0.0003896698     0.999992    0.04578905
  435       -6.1498777187      -0.0003896698     1.000000    0.04578905
  436       -6.1494880489       0.0003896698     0.999992    0.04578905
  437       -6.1498777187      -0.0003896698     1.000000    0.04578905
  438       -6.1494880489       0.0003896698     0.999992    0.04578905
  439       -6.1498777187      -0.0003896698     1.000000    0.04578905
  440       -6.1494880489       0.0003896698     0.999992    0.04578905
  441       -6.1498777187      -0.0003896698     1.000000    0.04578905
  442       -6.1494880489       0.0003896698     0.999992    0.04578905
  443       -6.1498777187      -0.0003896698     1.000000    0.04578905
  444       -6.1494880489       0.0003896698     0.999992    0.04578905
  445       -6.1498777187      -0.0003896698     1.000000    0.04578905
  446       -6.1494880489       0.0003896698     0.999992    0.04578905
  447       -6.1498777187      -0.0003896698     1.000000    0.04578905
  448       -6.1494880489       0.0003896698     0.999992    0.04578905
  449       -6.1498777187      -0.0003896698     1.000000    0.04578905
  450       -6.1494880489       0.0003896698     0.999992    0.04578905
  451       -6.1498777187      -0.0003896698     1.000000    0.04578905
  452       -6.1494880489       0.0003896698     0.999992    0.04578905
  453       -6.1498777187      -0.0003896698     1.000000    0.04578905
  454       -6.1494880489       0.0003896698     0.999992    0.04578905
  455       -6.1498777187      -0.0003896698     1.000000    0.04578905
  456       -6.1494880489       0.0003896698     0.999992    0.04578905
  457       -6.1498777187      -0.0003896698     1.000000    0.04578905
  458       -6.1494880489       0.0003896698     0.999992    0.04578905
  459       -6.1498777187      -0.0003896698     1.000000    0.04578905
  460       -6.1494880489       0.0003896698     0.999992    0.04578905
  461       -6.1498777187      -0.0003896698     1.000000    0.04578905
  462       -6.1494880489       0.0003896698     0.999992    0.04578905
  463       -6.1498777187      -0.0003896698     1.000000    0.04578905
  464       -6.1494880489       0.0003896698     0.999992    0.04578905
  465       -6.1498777187      -0.0003896698     1.000000    0.04578905
  466       -6.1494880489       0.0003896698     0.999992    0.04578905
  467       -6.1498777187      -0.0003896698     1.000000    0.04578905
  468       -6.1494880489       0.0003896698     0.999992    0.04578905
  469       -6.1498777187      -0.0003896698     1.000000    0.04578905
  470       -6.1494880489       0.0003896698     0.999992    0.04578905
  471       -6.1498777187      -0.0003896698     1.000000    0.04578905
  472       -6.1494880489       0.0003896698     0.999992    0.04578905
  473       -6.1498777187      -0.0003896698     1.000000    0.04578905
  474       -6.1494880489       0.0003896698     0.999992    0.04578905
  475       -6.1498777187      -0.0003896698     1.000000    0.04578905
  476       -6.1494880489       0.0003896698     0.999992    0.04578905
  477       -6.1498777187      -0.0003896698     1.000000    0.04578905
  478       -6.1494880489       0.0003896698     0.999992    0.04578905
  479       -6.1498777187      -0.0003896698     1.000000    0.04578905
  480       -6.1494880489       0.0003896698     0.999992    0.04578905
  481       -6.1498777187      -0.0003896698     1.000000    0.04578905
  482       -6.1494880489       0.0003896698     0.999992    0.04578905
  483       -6.1498777187      -0.0003896698     1.000000    0.04578905
  484       -6.1494880489       0.0003896698     0.999992    0.04578905
  485       -6.1498777187      -0.0003896698     1.000000    0.04578905
  486       -6.1494880489       0.0003896698     0.999992    0.04578905
  487       -6.1498777187      -0.0003896698     1.000000    0.04578905
  488       -6.1494880489       0.0003896698     0.999992    0.04578905
  489       -6.1498777187      -0.0003896698     1.000000    0.04578905
  490       -6.1494880489       0.0003896698     0.999992    0.04578905
  491       -6.1498777187      -0.0003896698     1.000000    0.04578905
  492       -6.1494880489       0.0003896698     0.999992    0.04578905
  493       -6.1498777187      -0.0003896698     1.000000    0.04578905
  494       -6.1494880489       0.0003896698     0.999992    0.04578905
  495       -6.1498777187      -0.0003896698     1.000000    0.04578905
  496       -6.1494880489       0.0003896698     0.999992    0.04578905
  497       -6.1498777187      -0.0003896698     1.000000    0.04578905
  498       -6.1494880489       0.0003896698     0.999992    0.04578905
  499       -6.1498777187      -0.0003896698     1.000000    0.04578905
  500       -6.1494880489       0.0003896698     0.999992    0.04578905
  501       -6.1498777187      -0.0003896698     1.000000    0.04578905
  502       -6.1494880489       0.0003896698     0.999992    0.04578905
  503       -6.1498777187      -0.0003896698     1.000000    0.04578905
  504       -6.1494880489       0.0003896698     0.999992    0.04578905
  505       -6.1498777187      -0.0003896698     1.000000    0.04578905
  506       -6.1494880489       0.0003896698     0.999992    0.04578905
  507       -6.1498777187      -0.0003896698     1.000000    0.04578905
  508       -6.1494880489       0.0003896698     0.999992    0.04578905
  509       -6.1498777187      -0.0003896698     1.000000    0.04578905
  510       -6.1494880489       0.0003896698     0.999992    0.04578905
  511       -6.1498777187      -0.0003896698     1.000000    0.04578905
  512       -6.1494880489       0.0003896698     0.999992    0.04578905
  513       -6.1498777187      -0.0003896698     1.000000    0.04578905
  514       -6.1494880489       0.0003896698     0.999992    0.04578905
  515       -6.1498777187      -0.0003896698     1.000000    0.04578905
  516       -6.1494880489       0.0003896698     0.999992    0.04578905
  517       -6.1498777187      -0.0003896698     1.000000    0.04578905
  518       -6.1494880489       0.0003896698     0.999992    0.04578905
  519       -6.1498777187      -0.0003896698     1.000000    0.04578905
  520       -6.1494880489       0.0003896698     0.999992    0.04578905
  521       -6.1498777187      -0.0003896698     1.000000    0.04578905
  522       -6.1494880489       0.0003896698     0.999992    0.04578905
  523       -6.1498777187      -0.0003896698     1.000000    0.04578905
  524       -6.1494880489       0.0003896698     0.999992    0.04578905
  525       -6.1498777187      -0.0003896698     1.000000    0.04578905
  526       -6.1494880489       0.0003896698     0.999992    0.04578905
  527       -6.1498777187      -0.0003896698     1.000000    0.04578905
  528       -6.1494880489       0.0003896698     0.999992    0.04578905
  529       -6.1498777187      -0.0003896698     1.000000    0.04578905
  530       -6.1494880489       0.0003896698     0.999992    0.04578905
  531       -6.1498777187      -0.0003896698     1.000000    0.04578905
  532       -6.1494880489       0.0003896698     0.999992    0.04578905
  533       -6.1498777187      -0.0003896698     1.000000    0.04578905
  534       -6.1494880489       0.0003896698     0.999992    0.04578905
  535       -6.1498777187      -0.0003896698     1.000000    0.04578905
  536       -6.1494880489       0.0003896698     0.999992    0.04578905
  537       -6.1498777187      -0.0003896698     1.000000    0.04578905
  538       -6.1494880489       0.0003896698     0.999992    0.04578905
  539       -6.1498777187      -0.0003896698     1.000000    0.04578905
  540       -6.1494880489       0.0003896698     0.999992    0.04578905
  541       -6.1498777187      -0.0003896698     1.000000    0.04578905
  542       -6.1494880489       0.0003896698     0.999992    0.04578905
  543       -6.1498777187      -0.0003896698     1.000000    0.04578905
  544       -6.1494880489       0.0003896698     0.999992    0.04578905
  545       -6.1498777187      -0.0003896698     1.000000    0.04578905
  546       -6.1494880489       0.0003896698     0.999992    0.04578905
  547       -6.1498777187      -0.0003896698     1.000000    0.04578905
  548       -6.1494880489       0.0003896698     0.999992    0.04578905
  549       -6.1498777187      -0.0003896698     1.000000    0.04578905
  550       -6.1494880489       0.0003896698     0.999992    0.04578905
  551       -6.1498777187      -0.0003896698     1.000000    0.04578905
  552       -6.1494880489       0.0003896698     0.999992    0.04578905
  553       -6.1498777187      -0.0003896698     1.000000    0.04578905
  554       -6.1494880489       0.0003896698     0.999992    0.04578905
  555       -6.1498777187      -0.0003896698     1.000000    0.04578905
  556       -6.1494880489       0.0003896698     0.999992    0.04578905
  557       -6.1498777187      -0.0003896698     1.000000    0.04578905
  558       -6.1494880489       0.0003896698     0.999992    0.04578905
  559       -6.1498777187      -0.0003896698     1.000000    0.04578905
  560       -6.1494880489       0.0003896698     0.999992    0.04578905
  561       -6.1498777187      -0.0003896698     1.000000    0.04578905
  562       -6.1494880489       0.0003896698     0.999992    0.04578905
  563       -6.1498777187      -0.0003896698     1.000000    0.04578905
  564       -6.1494880489       0.0003896698     0.999992    0.04578905
  565       -6.1498777187      -0.0003896698     1.000000    0.04578905
  566       -6.1494880489       0.0003896698     0.999992    0.04578905
  567       -6.1498777187      -0.0003896698     1.000000    0.04578905
  568       -6.1494880489       0.0003896698     0.999992    0.04578905
  569       -6.1498777187      -0.0003896698     1.000000    0.04578905
  570       -6.1494880489       0.0003896698     0.999992    0.04578905
  571       -6.1498777187      -0.0003896698     1.000000    0.04578905
  572       -6.1494880489       0.0003896698     0.999992    0.04578905
  573       -6.1498777187      -0.0003896698     1.000000    0.04578905
  574       -6.1494880489       0.0003896698     0.999992    0.04578905
  575       -6.1498777187      -0.0003896698     1.000000    0.04578905
  576       -6.1494880489       0.0003896698     0.999992    0.04578905
  577       -6.1498777187      -0.0003896698     1.000000    0.04578905
  578       -6.1494880489       0.0003896698     0.999992    0.04578905
  579       -6.1498777187      -0.0003896698     1.000000    0.04578905
  580       -6.1494880489       0.0003896698     0.999992    0.04578905
  581       -6.1498777187      -0.0003896698     1.000000    0.04578905
  582       -6.1494880489       0.0003896698     0.999992    0.04578905
  583       -6.1498777187      -0.0003896698     1.000000    0.04578905
  584       -6.1494880489       0.0003896698     0.999992    0.04578905
  585       -6.1498777187      -0.0003896698     1.000000    0.04578905
  586       -6.1494880489       0.0003896698     0.999992    0.04578905
  587       -6.1498777187      -0.0003896698     1.000000    0.04578905
  588       -6.1494880489       0.0003896698     0.999992    0.04578905
  589       -6.1498777187      -0.0003896698     1.000000    0.04578905
  590       -6.1494880489       0.0003896698     0.999992    0.04578905
  591       -6.1498777187      -0.0003896698     1.000000    0.04578905
  592       -6.1494880489       0.0003896698     0.999992    0.04578905
  593       -6.1498777187      -0.0003896698     1.000000    0.04578905
  594       -6.1494880489       0.0003896698     0.999992    0.04578905
  595       -6.1498777187      -0.0003896698     1.000000    0.04578905
  596       -6.1494880489       0.0003896698     0.999992    0.04578905
  597       -6.1498777187      -0.0003896698     1.000000    0.04578905
  598       -6.1494880489       0.0003896698     0.999992    0.04578905
  599       -6.1498777187      -0.0003896698     1.000000    0.04578905
  600       -6.1494880489       0.0003896698     0.999992    0.04578905
  601       -6.1498777187      -0.0003896698     1.000000    0.04578905
  602       -6.1494880489       0.0003896698     0.999992    0.04578905
  603       -6.1498777187      -0.0003896698     1.000000    0.04578905
  604       -6.1494880489       0.0003896698     0.999992    0.04578905
  605       -6.1498777187      -0.0003896698     1.000000    0.04578905
  606       -6.1494880489       0.0003896698     0.999992    0.04578905
  607       -6.1498777187      -0.0003896698     1.000000    0.04578905
  608       -6.1494880489       0.0003896698     0.999992    0.04578905
  609       -6.1498777187      -0.0003896698     1.000000    0.04578905
  610       -6.1494880489       0.0003896698     0.999992    0.04578905
  611       -6.1498777187      -0.0003896698     1.000000    0.04578905
  612       -6.1494880489       0.0003896698     0.999992    0.04578905
  613       -6.1498777187      -0.0003896698     1.000000    0.04578905
  614       -6.1494880489       0.0003896698     0.999992    0.04578905
  615       -6.1498777187      -0.0003896698     1.000000    0.04578905
  616       -6.1494880489       0.0003896698     0.999992    0.04578905
  617       -6.1498777187      -0.0003896698     1.000000    0.04578905
  618       -6.1494880489       0.0003896698     0.999992    0.04578905
  619       -6.1498777187      -0.0003896698     1.000000    0.04578905
  620       -6.1494880489       0.0003896698     0.999992    0.04578905
  621       -6.1498777187      -0.0003896698     1.000000    0.04578905
  622       -6.1494880489       0.0003896698     0.999992    0.04578905
  623       -6.1498777187      -0.0003896698     1.000000    0.04578905
  624       -6.1494880489       0.0003896698     0.999992    0.04578905
  625       -6.1498777187      -0.0003896698     1.000000    0.04578905
  626       -6.1494880489       0.0003896698     0.999992    0.04578905
  627       -6.1498777187      -0.0003896698     1.000000    0.04578905
  628       -6.1494880489       0.0003896698     0.999992    0.04578905
  629       -6.1498777187      -0.0003896698     1.000000    0.04578905
  630       -6.1494880489       0.0003896698     0.999992    0.04578905
  631       -6.1498777187      -0.0003896698     1.000000    0.04578905
  632       -6.1494880489       0.0003896698     0.999992    0.04578905
  633       -6.1498777187      -0.0003896698     1.000000    0.04578905
  634       -6.1494880489       0.0003896698     0.999992    0.04578905
  635       -6.1498777187      -0.0003896698     1.000000    0.04578905
  636       -6.1494880489       0.0003896698     0.999992    0.04578905
  637       -6.1498777187      -0.0003896698     1.000000    0.04578905
  638       -6.1494880489       0.0003896698     0.999992    0.04578905
  639       -6.1498777187      -0.0003896698     1.000000    0.04578905
  640       -6.1494880489       0.0003896698     0.999992    0.04578905
  641       -6.1498777187      -0.0003896698     1.000000    0.04578905
  642       -6.1494880489       0.0003896698     0.999992    0.04578905
  643       -6.1498777187      -0.0003896698     1.000000    0.04578905
  644       -6.1494880489       0.0003896698     0.999992    0.04578905
  645       -6.1498777187      -0.0003896698     1.000000    0.04578905
  646       -6.1494880489       0.0003896698     0.999992    0.04578905
  647       -6.1498777187      -0.0003896698     1.000000    0.04578905
  648       -6.1494880489       0.0003896698     0.999992    0.04578905
  649       -6.1498777187      -0.0003896698     1.000000    0.04578905
  650       -6.1494880489       0.0003896698     0.999992    0.04578905
  651       -6.1498777187      -0.0003896698     1.000000    0.04578905
  652       -6.1494880489       0.0003896698     0.999992    0.04578905
  653       -6.1498777187      -0.0003896698     1.000000    0.04578905
  654       -6.1494880489       0.0003896698     0.999992    0.04578905
  655       -6.1498777187      -0.0003896698     1.000000    0.04578905
  656       -6.1494880489       0.0003896698     0.999992    0.04578905
  657       -6.1498777187      -0.0003896698     1.000000    0.04578905
  658       -6.1494880489       0.0003896698     0.999992    0.04578905
  659       -6.1498777187      -0.0003896698     1.000000    0.04578905
  660       -6.1494880489       0.0003896698     0.999992    0.04578905
  661       -6.1498777187      -0.0003896698     1.000000    0.04578905
  662       -6.1494880489       0.0003896698     0.999992    0.04578905
  663       -6.1498777187      -0.0003896698     1.000000    0.04578905
  664       -6.1494880489       0.0003896698     0.999992    0.04578905
  665       -6.1498777187      -0.0003896698     1.000000    0.04578905
  666       -6.1494880489       0.0003896698     0.999992    0.04578905
  667       -6.1498777187      -0.0003896698     1.000000    0.04578905
  668       -6.1494880489       0.0003896698     0.999992    0.04578905
  669       -6.1498777187      -0.0003896698     1.000000    0.04578905
  670       -6.1494880489       0.0003896698     0.999992    0.04578905
  671       -6.1498777187      -0.0003896698     1.000000    0.04578905
  672       -6.1494880489       0.0003896698     0.999992    0.04578905
  673       -6.1498777187      -0.0003896698     1.000000    0.04578905
  674       -6.1494880489       0.0003896698     0.999992    0.04578905
  675       -6.1498777187      -0.0003896698     1.000000    0.04578905
  676       -6.1494880489       0.0003896698     0.999992    0.04578905
  677       -6.1498777187      -0.0003896698     1.000000    0.04578905
  678       -6.1494880489       0.0003896698     0.999992    0.04578905
  679       -6.1498777187      -0.0003896698     1.000000    0.04578905
  680       -6.1494880489       0.0003896698     0.999992    0.04578905
  681       -6.1498777187      -0.0003896698     1.000000    0.04578905
  682       -6.1494880489       0.0003896698     0.999992    0.04578905
  683       -6.1498777187      -0.0003896698     1.000000    0.04578905
  684       -6.1494880489       0.0003896698     0.999992    0.04578905
  685       -6.1498777187      -0.0003896698     1.000000    0.04578905
  686       -6.1494880489       0.0003896698     0.999992    0.04578905
  687       -6.1498777187      -0.0003896698     1.000000    0.04578905
  688       -6.1494880489       0.0003896698     0.999992    0.04578905
  689       -6.1498777187      -0.0003896698     1.000000    0.04578905
  690       -6.1494880489       0.0003896698     0.999992    0.04578905
  691       -6.1498777187      -0.0003896698     1.000000    0.04578905
  692       -6.1494880489       0.0003896698     0.999992    0.04578905
  693       -6.1498777187      -0.0003896698     1.000000    0.04578905
  694       -6.1494880489       0.0003896698     0.999992    0.04578905
  695       -6.1498777187      -0.0003896698     1.000000    0.04578905
  696       -6.1494880489       0.0003896698     0.999992    0.04578905
  697       -6.1498777187      -0.0003896698     1.000000    0.04578905
  698       -6.1494880489       0.0003896698     0.999992    0.04578905
  699       -6.1498777187      -0.0003896698     1.000000    0.04578905
  700       -6.1494880489       0.0003896698     0.999992    0.04578905
  701       -6.1498777187      -0.0003896698     1.000000    0.04578905
  702       -6.1494880489       0.0003896698     0.999992    0.04578905
  703       -6.1498777187      -0.0003896698     1.000000    0.04578905
  704       -6.1494880489       0.0003896698     0.999992    0.04578905
  705       -6.1498777187      -0.0003896698     1.000000    0.04578905
  706       -6.1494880489       0.0003896698     0.999992    0.04578905
  707       -6.1498777187      -0.0003896698     1.000000    0.04578905
  708       -6.1494880489       0.0003896698     0.999992    0.04578905
  709       -6.1498777187      -0.0003896698     1.000000    0.04578905
  710       -6.1494880489       0.0003896698     0.999992    0.04578905
  711       -6.1498777187      -0.0003896698     1.000000    0.04578905
  712       -6.1494880489       0.0003896698     0.999992    0.04578905
  713       -6.1498777187      -0.0003896698     1.000000    0.04578905
  714       -6.1494880489       0.0003896698     0.999992    0.04578905
  715       -6.1498777187      -0.0003896698     1.000000    0.04578905
  716       -6.1494880489       0.0003896698     0.999992    0.04578905
  717       -6.1498777187      -0.0003896698     1.000000    0.04578905
  718       -6.1494880489       0.0003896698     0.999992    0.04578905
  719       -6.1498777187      -0.0003896698     1.000000    0.04578905
  720       -6.1494880489       0.0003896698     0.999992    0.04578905
  721       -6.1498777187      -0.0003896698     1.000000    0.04578905
  722       -6.1494880489       0.0003896698     0.999992    0.04578905
  723       -6.1498777187      -0.0003896698     1.000000    0.04578905
  724       -6.1494880489       0.0003896698     0.999992    0.04578905
  725       -6.1498777187      -0.0003896698     1.000000    0.04578905
  726       -6.1494880489       0.0003896698     0.999992    0.04578905
  727       -6.1498777187      -0.0003896698     1.000000    0.04578905
  728       -6.1494880489       0.0003896698     0.999992    0.04578905
  729       -6.1498777187      -0.0003896698     1.000000    0.04578905
  730       -6.1494880489       0.0003896698     0.999992    0.04578905
  731       -6.1498777187      -0.0003896698     1.000000    0.04578905
  732       -6.1494880489       0.0003896698     0.999992    0.04578905
  733       -6.1498777187      -0.0003896698     1.000000    0.04578905
  734       -6.1494880489       0.0003896698     0.999992    0.04578905
  735       -6.1498777187      -0.0003896698     1.000000    0.04578905
  736       -6.1494880489       0.0003896698     0.999992    0.04578905
  737       -6.1498777187      -0.0003896698     1.000000    0.04578905
  738       -6.1494880489       0.0003896698     0.999992    0.04578905
  739       -6.1498777187      -0.0003896698     1.000000    0.04578905
  740       -6.1494880489       0.0003896698     0.999992    0.04578905
  741       -6.1498777187      -0.0003896698     1.000000    0.04578905
  742       -6.1494880489       0.0003896698     0.999992    0.04578905
  743       -6.1498777187      -0.0003896698     1.000000    0.04578905
  744       -6.1494880489       0.0003896698     0.999992    0.04578905
  745       -6.1498777187      -0.0003896698     1.000000    0.04578905
  746       -6.1494880489       0.0003896698     0.999992    0.04578905
  747       -6.1498777187      -0.0003896698     1.000000    0.04578905
  748       -6.1494880489       0.0003896698     0.999992    0.04578905
  749       -6.1498777187      -0.0003896698     1.000000    0.04578905
  750       -6.1494880489       0.0003896698     0.999992    0.04578905
  751       -6.1498777187      -0.0003896698     1.000000    0.04578905
  752       -6.1494880489       0.0003896698     0.999992    0.04578905
  753       -6.1498777187      -0.0003896698     1.000000    0.04578905
  754       -6.1494880489       0.0003896698     0.999992    0.04578905
  755       -6.1498777187      -0.0003896698     1.000000    0.04578905
  756       -6.1494880489       0.0003896698     0.999992    0.04578905
  757       -6.1498777187      -0.0003896698     1.000000    0.04578905
  758       -6.1494880489       0.0003896698     0.999992    0.04578905
  759       -6.1498777187      -0.0003896698     1.000000    0.04578905
  760       -6.1494880489       0.0003896698     0.999992    0.04578905
  761       -6.1498777187      -0.0003896698     1.000000    0.04578905
  762       -6.1494880489       0.0003896698     0.999992    0.04578905
  763       -6.1498777187      -0.0003896698     1.000000    0.04578905
  764       -6.1494880489       0.0003896698     0.999992    0.04578905
  765       -6.1498777187      -0.0003896698     1.000000    0.04578905
  766       -6.1494880489       0.0003896698     0.999992    0.04578905
  767       -6.1498777187      -0.0003896698     1.000000    0.04578905
  768       -6.1494880489       0.0003896698     0.999992    0.04578905
  769       -6.1498777187      -0.0003896698     1.000000    0.04578905
  770       -6.1494880489       0.0003896698     0.999992    0.04578905
  771       -6.1498777187      -0.0003896698     1.000000    0.04578905
  772       -6.1494880489       0.0003896698     0.999992    0.04578905
  773       -6.1498777187      -0.0003896698     1.000000    0.04578905
  774       -6.1494880489       0.0003896698     0.999992    0.04578905
  775       -6.1498777187      -0.0003896698     1.000000    0.04578905
  776       -6.1494880489       0.0003896698     0.999992    0.04578905
  777       -6.1498777187      -0.0003896698     1.000000    0.04578905
  778       -6.1494880489       0.0003896698     0.999992    0.04578905
  779       -6.1498777187      -0.0003896698     1.000000    0.04578905
  780       -6.1494880489       0.0003896698     0.999992    0.04578905
  781       -6.1498777187      -0.0003896698     1.000000    0.04578905
  782       -6.1494880489       0.0003896698     0.999992    0.04578905
  783       -6.1498777187      -0.0003896698     1.000000    0.04578905
  784       -6.1494880489       0.0003896698     0.999992    0.04578905
  785       -6.1498777187      -0.0003896698     1.000000    0.04578905
  786       -6.1494880489       0.0003896698     0.999992    0.04578905
  787       -6.1498777187      -0.0003896698     1.000000    0.04578905
  788       -6.1494880489       0.0003896698     0.999992    0.04578905
  789       -6.1498777187      -0.0003896698     1.000000    0.04578905
  790       -6.1494880489       0.0003896698     0.999992    0.04578905
  791       -6.1498777187      -0.0003896698     1.000000    0.04578905
  792       -6.1494880489       0.0003896698     0.999992    0.04578905
  793       -6.1498777187      -0.0003896698     1.000000    0.04578905
  794       -6.1494880489       0.0003896698     0.999992    0.04578905
  795       -6.1498777187      -0.0003896698     1.000000    0.04578905
  796       -6.1494880489       0.0003896698     0.999992    0.04578905
  797       -6.1498777187      -0.0003896698     1.000000    0.04578905
  798       -6.1494880489       0.0003896698     0.999992    0.04578905
  799       -6.1498777187      -0.0003896698     1.000000    0.04578905
  800       -6.1494880489       0.0003896698     0.999992    0.04578905
  801       -6.1498777187      -0.0003896698     1.000000    0.04578905
  802       -6.1494880489       0.0003896698     0.999992    0.04578905
  803       -6.1498777187      -0.0003896698     1.000000    0.04578905
  804       -6.1494880489       0.0003896698     0.999992    0.04578905
  805       -6.1498777187      -0.0003896698     1.000000    0.04578905
  806       -6.1494880489       0.0003896698     0.999992    0.04578905
  807       -6.1498777187      -0.0003896698     1.000000    0.04578905
  808       -6.1494880489       0.0003896698     0.999992    0.04578905
  809       -6.1498777187      -0.0003896698     1.000000    0.04578905
  810       -6.1494880489       0.0003896698     0.999992    0.04578905
  811       -6.1498777187      -0.0003896698     1.000000    0.04578905
  812       -6.1494880489       0.0003896698     0.999992    0.04578905
  813       -6.1498777187      -0.0003896698     1.000000    0.04578905
  814       -6.1494880489       0.0003896698     0.999992    0.04578905
  815       -6.1498777187      -0.0003896698     1.000000    0.04578905
  816       -6.1494880489       0.0003896698     0.999992    0.04578905
  817       -6.1498777187      -0.0003896698     1.000000    0.04578905
  818       -6.1494880489       0.0003896698     0.999992    0.04578905
  819       -6.1498777187      -0.0003896698     1.000000    0.04578905
  820       -6.1494880489       0.0003896698     0.999992    0.04578905
  821       -6.1498777187      -0.0003896698     1.000000    0.04578905
  822       -6.1494880489       0.0003896698     0.999992    0.04578905
  823       -6.1498777187      -0.0003896698     1.000000    0.04578905
  824       -6.1494880489       0.0003896698     0.999992    0.04578905
  825       -6.1498777187      -0.0003896698     1.000000    0.04578905
  826       -6.1494880489       0.0003896698     0.999992    0.04578905
  827       -6.1498777187      -0.0003896698     1.000000    0.04578905
  828       -6.1494880489       0.0003896698     0.999992    0.04578905
  829       -6.1498777187      -0.0003896698     1.000000    0.04578905
  830       -6.1494880489       0.0003896698     0.999992    0.04578905
  831       -6.1498777187      -0.0003896698     1.000000    0.04578905
  832       -6.1494880489       0.0003896698     0.999992    0.04578905
  833       -6.1498777187      -0.0003896698     1.000000    0.04578905
  834       -6.1494880489       0.0003896698     0.999992    0.04578905
  835       -6.1498777187      -0.0003896698     1.000000    0.04578905
  836       -6.1494880489       0.0003896698     0.999992    0.04578905
  837       -6.1498777187      -0.0003896698     1.000000    0.04578905
  838       -6.1494880489       0.0003896698     0.999992    0.04578905
  839       -6.1498777187      -0.0003896698     1.000000    0.04578905
  840       -6.1494880489       0.0003896698     0.999992    0.04578905
  841       -6.1498777187      -0.0003896698     1.000000    0.04578905
  842       -6.1494880489       0.0003896698     0.999992    0.04578905
  843       -6.1498777187      -0.0003896698     1.000000    0.04578905
  844       -6.1494880489       0.0003896698     0.999992    0.04578905
  845       -6.1498777187      -0.0003896698     1.000000    0.04578905
  846       -6.1494880489       0.0003896698     0.999992    0.04578905
  847       -6.1498777187      -0.0003896698     1.000000    0.04578905
  848       -6.1494880489       0.0003896698     0.999992    0.04578905
  849       -6.1498777187      -0.0003896698     1.000000    0.04578905
  850       -6.1494880489       0.0003896698     0.999992    0.04578905
  851       -6.1498777187      -0.0003896698     1.000000    0.04578905
  852       -6.1494880489       0.0003896698     0.999992    0.04578905
  853       -6.1498777187      -0.0003896698     1.000000    0.04578905
  854       -6.1494880489       0.0003896698     0.999992    0.04578905
  855       -6.1498777187      -0.0003896698     1.000000    0.04578905
  856       -6.1494880489       0.0003896698     0.999992    0.04578905
  857       -6.1498777187      -0.0003896698     1.000000    0.04578905
  858       -6.1494880489       0.0003896698     0.999992    0.04578905
  859       -6.1498777187      -0.0003896698     1.000000    0.04578905
  860       -6.1494880489       0.0003896698     0.999992    0.04578905
  861       -6.1498777187      -0.0003896698     1.000000    0.04578905
  862       -6.1494880489       0.0003896698     0.999992    0.04578905
  863       -6.1498777187      -0.0003896698     1.000000    0.04578905
  864       -6.1494880489       0.0003896698     0.999992    0.04578905
  865       -6.1498777187      -0.0003896698     1.000000    0.04578905
  866       -6.1494880489       0.0003896698     0.999992    0.04578905
  867       -6.1498777187      -0.0003896698     1.000000    0.04578905
  868       -6.1494880489       0.0003896698     0.999992    0.04578905
  869       -6.1498777187      -0.0003896698     1.000000    0.04578905
  870       -6.1494880489       0.0003896698     0.999992    0.04578905
  871       -6.1498777187      -0.0003896698     1.000000    0.04578905
  872       -6.1494880489       0.0003896698     0.999992    0.04578905
  873       -6.1498777187      -0.0003896698     1.000000    0.04578905
  874       -6.1494880489       0.0003896698     0.999992    0.04578905
  875       -6.1498777187      -0.0003896698     1.000000    0.04578905
  876       -6.1494880489       0.0003896698     0.999992    0.04578905
  877       -6.1498777187      -0.0003896698     1.000000    0.04578905
  878       -6.1494880489       0.0003896698     0.999992    0.04578905
  879       -6.1498777187      -0.0003896698     1.000000    0.04578905
  880       -6.1494880489       0.0003896698     0.999992    0.04578905
  881       -6.1498777187      -0.0003896698     1.000000    0.04578905
  882       -6.1494880489       0.0003896698     0.999992    0.04578905
  883       -6.1498777187      -0.0003896698     1.000000    0.04578905
  884       -6.1494880489       0.0003896698     0.999992    0.04578905
  885       -6.1498777187      -0.0003896698     1.000000    0.04578905
  886       -6.1494880489       0.0003896698     0.999992    0.04578905
  887       -6.1498777187      -0.0003896698     1.000000    0.04578905
  888       -6.1494880489       0.0003896698     0.999992    0.04578905
  889       -6.1498777187      -0.0003896698     1.000000    0.04578905
  890       -6.1494880489       0.0003896698     0.999992    0.04578905
  891       -6.1498777187      -0.0003896698     1.000000    0.04578905
  892       -6.1494880489       0.0003896698     0.999992    0.04578905
  893       -6.1498777187      -0.0003896698     1.000000    0.04578905
  894       -6.1494880489       0.0003896698     0.999992    0.04578905
  895       -6.1498777187      -0.0003896698     1.000000    0.04578905
  896       -6.1494880489       0.0003896698     0.999992    0.04578905
  897       -6.1498777187      -0.0003896698     1.000000    0.04578905
  898       -6.1494880489       0.0003896698     0.999992    0.04578905
  899       -6.1498777187      -0.0003896698     1.000000    0.04578905
  900       -6.1494880489       0.0003896698     0.999992    0.04578905
  901       -6.1498777187      -0.0003896698     1.000000    0.04578905
  902       -6.1494880489       0.0003896698     0.999992    0.04578905
  903       -6.1498777187      -0.0003896698     1.000000    0.04578905
  904       -6.1494880489       0.0003896698     0.999992    0.04578905
  905       -6.1498777187      -0.0003896698     1.000000    0.04578905
  906       -6.1494880489       0.0003896698     0.999992    0.04578905
  907       -6.1498777187      -0.0003896698     1.000000    0.04578905
  908       -6.1494880489       0.0003896698     0.999992    0.04578905
  909       -6.1498777187      -0.0003896698     1.000000    0.04578905
  910       -6.1494880489       0.0003896698     0.999992    0.04578905
  911       -6.1498777187      -0.0003896698     1.000000    0.04578905
  912       -6.1494880489       0.0003896698     0.999992    0.04578905
  913       -6.1498777187      -0.0003896698     1.000000    0.04578905
  914       -6.1494880489       0.0003896698     0.999992    0.04578905
  915       -6.1498777187      -0.0003896698     1.000000    0.04578905
  916       -6.1494880489       0.0003896698     0.999992    0.04578905
  917       -6.1498777187      -0.0003896698     1.000000    0.04578905
  918       -6.1494880489       0.0003896698     0.999992    0.04578905
  919       -6.1498777187      -0.0003896698     1.000000    0.04578905
  920       -6.1494880489       0.0003896698     0.999992    0.04578905
  921       -6.1498777187      -0.0003896698     1.000000    0.04578905
  922       -6.1494880489       0.0003896698     0.999992    0.04578905
  923       -6.1498777187      -0.0003896698     1.000000    0.04578905
  924       -6.1494880489       0.0003896698     0.999992    0.04578905
  925       -6.1498777187      -0.0003896698     1.000000    0.04578905
  926       -6.1494880489       0.0003896698     0.999992    0.04578905
  927       -6.1498777187      -0.0003896698     1.000000    0.04578905
  928       -6.1494880489       0.0003896698     0.999992    0.04578905
  929       -6.1498777187      -0.0003896698     1.000000    0.04578905
  930       -6.1494880489       0.0003896698     0.999992    0.04578905
  931       -6.1498777187      -0.0003896698     1.000000    0.04578905
  932       -6.1494880489       0.0003896698     0.999992    0.04578905
  933       -6.1498777187      -0.0003896698     1.000000    0.04578905
  934       -6.1494880489       0.0003896698     0.999992    0.04578905
  935       -6.1498777187      -0.0003896698     1.000000    0.04578905
  936       -6.1494880489       0.0003896698     0.999992    0.04578905
  937       -6.1498777187      -0.0003896698     1.000000    0.04578905
  938       -6.1494880489       0.0003896698     0.999992    0.04578905
  939       -6.1498777187      -0.0003896698     1.000000    0.04578905
  940       -6.1494880489       0.0003896698     0.999992    0.04578905
  941       -6.1498777187      -0.0003896698     1.000000    0.04578905
  942       -6.1494880489       0.0003896698     0.999992    0.04578905
  943       -6.1498777187      -0.0003896698     1.000000    0.04578905
  944       -6.1494880489       0.0003896698     0.999992    0.04578905
  945       -6.1498777187      -0.0003896698     1.000000    0.04578905
  946       -6.1494880489       0.0003896698     0.999992    0.04578905
  947       -6.1498777187      -0.0003896698     1.000000    0.04578905
  948       -6.1494880489       0.0003896698     0.999992    0.04578905
  949       -6.1498777187      -0.0003896698     1.000000    0.04578905
  950       -6.1494880489       0.0003896698     0.999992    0.04578905
  951       -6.1498777187      -0.0003896698     1.000000    0.04578905
  952       -6.1494880489       0.0003896698     0.999992    0.04578905
  953       -6.1498777187      -0.0003896698     1.000000    0.04578905
  954       -6.1494880489       0.0003896698     0.999992    0.04578905
  955       -6.1498777187      -0.0003896698     1.000000    0.04578905
  956       -6.1494880489       0.0003896698     0.999992    0.04578905
  957       -6.1498777187      -0.0003896698     1.000000    0.04578905
  958       -6.1494880489       0.0003896698     0.999992    0.04578905
  959       -6.1498777187      -0.0003896698     1.000000    0.04578905
  960       -6.1494880489       0.0003896698     0.999992    0.04578905
  961       -6.1498777187      -0.0003896698     1.000000    0.04578905
  962       -6.1494880489       0.0003896698     0.999992    0.04578905
  963       -6.1498777187      -0.0003896698     1.000000    0.04578905
  964       -6.1494880489       0.0003896698     0.999992    0.04578905
  965       -6.1498777187      -0.0003896698     1.000000    0.04578905
  966       -6.1494880489       0.0003896698     0.999992    0.04578905
  967       -6.1498777187      -0.0003896698     1.000000    0.04578905
  968       -6.1494880489       0.0003896698     0.999992    0.04578905
  969       -6.1498777187      -0.0003896698     1.000000    0.04578905
  970       -6.1494880489       0.0003896698     0.999992    0.04578905
  971       -6.1498777187      -0.0003896698     1.000000    0.04578905
  972       -6.1494880489       0.0003896698     0.999992    0.04578905
  973       -6.1498777187      -0.0003896698     1.000000    0.04578905
  974       -6.1494880489       0.0003896698     0.999992    0.04578905
  975       -6.1498777187      -0.0003896698     1.000000    0.04578905
  976       -6.1494880489       0.0003896698     0.999992    0.04578905
  977       -6.1498777187      -0.0003896698     1.000000    0.04578905
  978       -6.1494880489       0.0003896698     0.999992    0.04578905
  979       -6.1498777187      -0.0003896698     1.000000    0.04578905
  980       -6.1494880489       0.0003896698     0.999992    0.04578905
  981       -6.1498777187      -0.0003896698     1.000000    0.04578905
  982       -6.1494880489       0.0003896698     0.999992    0.04578905
  983       -6.1498777187      -0.0003896698     1.000000    0.04578905
  984       -6.1494880489       0.0003896698     0.999992    0.04578905
  985       -6.1498777187      -0.0003896698     1.000000    0.04578905
  986       -6.1494880489       0.0003896698     0.999992    0.04578905
  987       -6.1498777187      -0.0003896698     1.000000    0.04578905
  988       -6.1494880489       0.0003896698     0.999992    0.04578905
  989       -6.1498777187      -0.0003896698     1.000000    0.04578905
  990       -6.1494880489       0.0003896698     0.999992    0.04578905
  991       -6.1498777187      -0.0003896698     1.000000    0.04578905
  992       -6.1494880489       0.0003896698     0.999992    0.04578905
  993       -6.1498777187      -0.0003896698     1.000000    0.04578905
  994       -6.1494880489       0.0003896698     0.999992    0.04578905
  995       -6.1498777187      -0.0003896698     1.000000    0.04578905
  996       -6.1494880489       0.0003896698     0.999992    0.04578905
  997       -6.1498777187      -0.0003896698     1.000000    0.04578905
  998       -6.1494880489       0.0003896698     0.999992    0.04578905
  999       -6.1498777187      -0.0003896698     1.000000    0.04578905
 1000       -6.1494880489       0.0003896698     0.999992    0.04578905

Total Energy:                       -6.1494880489 H         -167.3361 eV
Extrapolated to 0:                  -6.2038172941 H         -168.8145 eV

----------------------------------------------------------------------------------
 Solving CP-REKS equation for  1 state vector...
----------------------------------------------------------------------------------
  CG solver: Constructing Y initial guess
  CG solver: Iteration    1    eps =    0.036254009998
  CG solver: Iteration    2    eps =    0.020015623976
  CG solver: Iteration    3    eps =    0.004251413030
  CG solver: Iteration    4    eps =    0.000329434659
  CG solver: Iteration    5    eps =    0.000042761861
  CG solver: Iteration    6    eps =    0.000005871017
  CG solver: Iteration    7    eps =    0.000000863540
  CG solver: Iteration    8    eps =    0.000000097302
  CG solver: Iteration    9    eps =    0.000000014357
  CG solver: Iteration   10    eps =    0.000000001100
  Convergence reached in CG solver after   10 iterations
  CG solver: Calculating converged R, Z, Q2 matrix
----------------------------------------------------------------------------------

----------------------------------------------------------------------------------
 Solving CP-REKS equation for SI between  1 and  2 state vectors...
----------------------------------------------------------------------------------
  CG solver: Constructing Y initial guess
  CG solver: Iteration    1    eps =    0.011638629080
  CG solver: Iteration    2    eps =    0.002070586299
  CG solver: Iteration    3    eps =    0.000128242654
  CG solver: Iteration    4    eps =    0.000020174600
  CG solver: Iteration    5    eps =    0.000003431904
  CG solver: Iteration    6    eps =    0.000000266118
  CG solver: Iteration    7    eps =    0.000000037046
  CG solver: Iteration    8    eps =    0.000000001424
  Convergence reached in CG solver after    8 iterations
  CG solver: Calculating converged R, Z, Q2 matrix
----------------------------------------------------------------------------------

--------------------------------------------------
 Gradient Information
--------------------------------------------------
           1 st state (SSR)
     0.00000000     0.00000000     0.00000000
     0.00000000     0.00000000     0.00000000
     0.00000000     0.00000000     0.00000000
     0.00000000     0.00000000     0.00000000
     0.00000000     0.00000000     0.00000000
     0.00000000     0.00000000     0.00000000

           2 st state (SSR)
     0.00000000     0.00000000     0.00000000
     0.00000000     0.00000000     0.00000000
     0.00000000     0.00000000     0.00000000
     0.00000000     0.00000000     0.00000000
     0.00000000     0.00000000     0.00000000
     0.00000000     0.00000000     0.00000000
--------------------------------------------------
 Coupling Information
--------------------------------------------------
 between  1 and  2 states
--------------------------------------------------
 g vector - difference gradient
    -0.45380300    -0.39816814    -0.18520558
     0.22980668     0.27404921    -0.00140811
     0.05050719    -0.04106766     0.09964894
    -0.03608387    -0.02064597     0.11390506
    -0.01568876     0.15916759    -0.00970363
     0.22526177     0.02666496    -0.01723668

 h vector - derivative coupling
     0.00300868    -0.00367143    -0.01021305
    -0.00135165    -0.02253094     0.00793148
     0.00725917     0.00734849     0.00003957
     0.00631984     0.01246045    -0.00843879
    -0.00576216     0.00479965     0.00086033
    -0.00947388     0.00159377     0.00982046

 G vector - GDV
     0.00000000     0.00000000     0.00000000
     0.00000000     0.00000000     0.00000000
     0.00000000     0.00000000     0.00000000
     0.00000000     0.00000000     0.00000000
     0.00000000     0.00000000     0.00000000
     0.00000000     0.00000000     0.00000000

 H vector - DCV - non-adiabatic coupling
    -0.00000000    -0.00000000    -0.00000000
    -0.00000000    -0.00000000    -0.00000000
    -0.00000000    -0.00000000    -0.00000000
    -0.00000000    -0.00000000    -0.00000000
    -0.00000000    -0.00000000    -0.00000000
    -0.00000000    -0.00000000    -0.00000000
--------------------------------------------------

WARNING!
-> SCC is NOT converged, maximal SCC iterations exceeded

--------------------------------------------------------------------------------
DFTB+ running times                          cpu [s]             wall clock [s]
--------------------------------------------------------------------------------
SCC                                    +     0.43  ( 97.1%)      0.43  ( 96.2%)
      Sparse to dense                        0.02  (  4.5%)      0.02  (  5.1%)
      Dense to sparse                        0.07  ( 15.0%)      0.06  ( 13.6%)
      Range separated Hamiltonian            0.03  (  6.5%)      0.03  (  6.9%)
  Density matrix creation                    0.05  ( 11.9%)      0.06  ( 13.1%)
  Force calculation                          0.01  (  2.6%)      0.01  (  2.4%)
--------------------------------------------------------------------------------
Missing                                +     0.01  (  2.9%)      0.02  (  3.8%)
Total                                  =     0.44  (100.0%)      0.45  (100.0%)
--------------------------------------------------------------------------------
