     6
  Step:   120            Position(A)                                  Velocity(au)
C        -0.02467437    -0.06004962    -0.02834691     0.00008910    -0.00010850    -0.00004940
N        -0.03487297    -0.00871338     1.35121976     0.00001246     0.00001615    -0.00008534
H         0.77182359     0.57865385    -0.57285108    -0.00087916     0.00149713     0.00080361
H         0.70351207    -0.59790529     1.82558643    -0.00087020    -0.00097068     0.00023307
H        -0.93084140     0.14766716     1.85951573     0.00053319     0.00121392     0.00009888
H        -0.97879806     0.03844381    -0.65944706    -0.00001866    -0.00067182     0.00063897
