     6
  Step:     0            Position(A)                                  Velocity(au)
C        -0.03478927     0.00493570     0.03468285    -0.00007619    -0.00008686    -0.00008015
N        -0.04546073    -0.04289060     1.27901325    -0.00014961     0.00004686     0.00008847
H         0.91603569     0.02042142    -0.49616501     0.00070124     0.00047186    -0.00011478
H         0.81458216    -0.18114815     1.85852131     0.00153491    -0.00043227     0.00078549
H        -0.89352078    -0.07698422     1.90084210     0.00080844     0.00010549    -0.00070481
H        -1.00374550     0.10514136    -0.55805768    -0.00005763     0.00023876    -0.00024021
     6
  Step:     1            Position(A)                                  Velocity(au)
C        -0.03524174     0.00448586     0.03382683    -0.00008870    -0.00007782    -0.00023202
N        -0.04627811    -0.04263491     1.27988088    -0.00014719     0.00004657     0.00022784
H         0.92030837     0.02292312    -0.49687768     0.00085406     0.00044366    -0.00014163
H         0.82301660    -0.18357846     1.86262560     0.00153184    -0.00045370     0.00070477
H        -0.88915872    -0.07647928     1.89671399     0.00077486     0.00007886    -0.00079585
H        -1.00406422     0.10637217    -0.55917754    -0.00005841     0.00021136    -0.00016864
     6
  Step:     2            Position(A)                                  Velocity(au)
C        -0.03575958     0.00408442     0.03214471    -0.00009989    -0.00006895    -0.00038139
N        -0.04707083    -0.04238120     1.28150565    -0.00014057     0.00004631     0.00036439
H         0.92537845     0.02527474    -0.49771433     0.00099021     0.00041550    -0.00015980
H         0.83133922    -0.18611124     1.86623089     0.00149485    -0.00047079     0.00060460
H        -0.88504441    -0.07612152     1.89213615     0.00071659     0.00005033    -0.00086746
H        -1.00438444     0.10745346    -0.55990245    -0.00005784     0.00018292    -0.00009642
     6
  Step:     3            Position(A)                                  Velocity(au)
C        -0.03633483     0.00373143     0.02965355    -0.00010941    -0.00005978    -0.00052677
N        -0.04781628    -0.04212812     1.28386820    -0.00012982     0.00004651     0.00049644
H         0.93114358     0.02746968    -0.49862628     0.00110426     0.00038433    -0.00016913
H         0.83937386    -0.18873000     1.86924137     0.00142634    -0.00048616     0.00048888
H        -0.88131758    -0.07592859     1.88722195     0.00063196     0.00001689    -0.00091630
H        -1.00469713     0.10837379    -0.56023260    -0.00005470     0.00015087    -0.00002515
     6
  Step:     4            Position(A)                                  Velocity(au)
C        -0.03695756     0.00342987     0.02637685    -0.00011682    -0.00004970    -0.00066734
N        -0.04849235    -0.04187188     1.28694146    -0.00011511     0.00004759     0.00062286
H         0.93746957     0.02948304    -0.49956624     0.00118817     0.00034670    -0.00017051
H         0.84695698    -0.19143447     1.87158391     0.00132808    -0.00050283     0.00036258
H        -0.87812470    -0.07593661     1.88210304     0.00052088    -0.00002496    -0.00093840
H        -1.00498343     0.10910542    -0.56017781    -0.00004541     0.00011188     0.00004282
     6
  Step:     5            Position(A)                                  Velocity(au)
C        -0.03761542     0.00318665     0.02233824    -0.00012161    -0.00003833    -0.00080367
N        -0.04907812    -0.04160639     1.29069601    -0.00009678     0.00004948     0.00074369
H         0.94416822     0.03127017    -0.50049538     0.00122899     0.00030176    -0.00016608
H         0.85393224    -0.19424202     1.87321596     0.00120099    -0.00052136     0.00023254
H        -0.87560769    -0.07620218     1.87693524     0.00038605    -0.00007584    -0.00092834
H        -1.00519492     0.10960023    -0.55976320    -0.00002199     0.00006461     0.00010388
     6
  Step:     6            Position(A)                                  Velocity(au)
C        -0.03829292     0.00300896     0.01755208    -0.00012332    -0.00002665    -0.00093497
N        -0.04955505    -0.04132857     1.29510762    -0.00007533     0.00005087     0.00085783
H         0.95096461     0.03279660    -0.50138992     0.00121719     0.00025663    -0.00015758
H         0.86014465    -0.19715937     1.87413734     0.00104713    -0.00053450     0.00010519
H        -0.87388563    -0.07676939     1.87190932     0.00023122    -0.00012730    -0.00088178
H        -1.00522491     0.10981489    -0.55903710     0.00002087     0.00001579     0.00015462
     6
  Step:     7            Position(A)                                  Velocity(au)
C        -0.03897277     0.00289337     0.01204739    -0.00012188    -0.00001619    -0.00105538
N        -0.04990728    -0.04104650     1.30013782    -0.00005127     0.00005051     0.00096030
H         0.95756525     0.03409480    -0.50222974     0.00115917     0.00021930    -0.00014495
H         0.86545753    -0.20012505     1.87437369     0.00087203    -0.00053368    -0.00001713
H        -0.87306275    -0.07760332     1.86722989     0.00005803    -0.00016935    -0.00080062
H        -1.00496522     0.10977403    -0.55806133     0.00007562    -0.00002522     0.00019400
     6
  Step:     8            Position(A)                                  Velocity(au)
C        -0.03963849     0.00283021     0.00590029    -0.00011746    -0.00000744    -0.00115724
N        -0.05012113    -0.04077094     1.30570970    -0.00002521     0.00004850     0.00104496
H         0.96376231     0.03521772    -0.50299021     0.00106909     0.00018983    -0.00012830
H         0.86977219    -0.20305144     1.87394823     0.00068306    -0.00051819    -0.00013372
H        -0.87324498    -0.07863912     1.86307009    -0.00013141    -0.00020081    -0.00069159
H        -1.00438999     0.10953649    -0.55689525     0.00012928    -0.00005613     0.00022212
     6
  Step:     9            Position(A)                                  Velocity(au)
C        -0.04027445     0.00281087    -0.00077716    -0.00011028    -0.00000017    -0.00123564
N        -0.05018667    -0.04050901     1.31171815     0.00000194     0.00004547     0.00110810
H         0.96941295     0.03619856    -0.50365152     0.00095699     0.00016502    -0.00010895
H         0.87302719    -0.20586760     1.87289179     0.00048765    -0.00049142    -0.00024210
H        -0.87451908    -0.07982870     1.85956569    -0.00033116    -0.00022458    -0.00056204
H        -1.00353248     0.10915194    -0.55559977     0.00017367    -0.00007880     0.00023850
     6
  Step:    10            Position(A)                                  Velocity(au)
C        -0.04086590     0.00282829    -0.00785236    -0.00010063     0.00000585    -0.00128858
N        -0.05009951    -0.04026488     1.31804285     0.00002905     0.00004188     0.00114846
H         0.97441353     0.03705438    -0.50420286     0.00082999     0.00014268    -0.00008859
H         0.87519973    -0.20852093     1.87125361     0.00029349    -0.00045677    -0.00033881
H        -0.87693078    -0.08113871     1.85681459    -0.00053249    -0.00024284    -0.00041977
H        -1.00245710     0.10865941    -0.55424070     0.00020454    -0.00009485     0.00024263
     6
  Step:    11            Position(A)                                  Velocity(au)
C        -0.04139961     0.00287630    -0.01518465    -0.00008895     0.00001079    -0.00131677
N        -0.04986190    -0.04004071     1.32455893     0.00005493     0.00003809     0.00116711
H         0.97869299     0.03779382    -0.50464205     0.00069454     0.00012178    -0.00006865
H         0.87630866    -0.21097464     1.86910355     0.00010813    -0.00041735    -0.00042079
H        -0.88047278    -0.08254385     1.85487225    -0.00072599    -0.00025691    -0.00027299
H        -1.00124558     0.10809141    -0.55288700     0.00021992    -0.00010539     0.00023457
     6
  Step:    12            Position(A)                                  Velocity(au)
C        -0.04186470     0.00294940    -0.02263880    -0.00007577     0.00001476    -0.00132358
N        -0.04948270    -0.03983714     1.33114870     0.00007859     0.00003436     0.00116741
H         0.98221269     0.03842195    -0.50497380     0.00055680     0.00010200    -0.00005042
H         0.87641395    -0.21320743     1.86652847    -0.00006193    -0.00037619    -0.00048621
H        -0.88508320    -0.08402368     1.85374904    -0.00090358    -0.00026785    -0.00012949
H        -0.99998751     0.10747596    -0.55160660     0.00021950    -0.00011134     0.00021522
     6
  Step:    13            Position(A)                                  Velocity(au)
C        -0.04225341     0.00304265    -0.03009930    -0.00006168     0.00001793    -0.00131443
N        -0.04897633    -0.03965353     1.33771381     0.00009935     0.00003090     0.00115441
H         0.98496721     0.03894314    -0.50521021     0.00042223     0.00008328    -0.00003503
H         0.87561080    -0.21521367     1.86362475    -0.00021211    -0.00033610    -0.00053481
H        -0.89065461    -0.08556210     1.85341314    -0.00105988    -0.00027668     0.00000448
H        -0.99877212     0.10683682    -0.55046184     0.00020417    -0.00011361     0.00018601
     6
  Step:    14            Position(A)                                  Velocity(au)
C        -0.04256119     0.00315188    -0.03748072    -0.00007398     0.00003209    -0.00203145
N        -0.04836087    -0.03948820     1.34418383     0.00018332     0.00004372     0.00177778
H         0.98698031     0.03936231    -0.50536938     0.00046228     0.00010298    -0.00003656
H         0.87401889    -0.21700253     1.86048965    -0.00053309    -0.00046953    -0.00088991
H        -0.89705085    -0.08714783     1.85379968    -0.00187019    -0.00044604     0.00019581
H        -0.99768213     0.10619317    -0.54950629     0.00027517    -0.00017733     0.00023297
     6
  Step:    15            Position(A)                                  Velocity(au)
C        -0.04294260     0.00331381    -0.04849256    -0.00005989     0.00002477    -0.00183443
N        -0.04729174    -0.03924761     1.35385267     0.00018953     0.00004110     0.00161665
H         0.98951913     0.03999169    -0.50582884     0.00043293     0.00011768    -0.00012305
H         0.87075698    -0.21953536     1.85548558    -0.00059498    -0.00042413    -0.00085537
H        -0.90785459    -0.08961627     1.85526458    -0.00190347    -0.00042072     0.00030538
H        -0.99646715     0.10529202    -0.54865157     0.00014543    -0.00013913     0.00006657
     6
  Step:    16            Position(A)                                  Velocity(au)
C        -0.04324400     0.00343431    -0.05839460    -0.00004608     0.00001761    -0.00164466
N        -0.04620007    -0.03901966     1.36261495     0.00019137     0.00003927     0.00146187
H         0.99191610     0.04070390    -0.50677229     0.00041185     0.00013222    -0.00020609
H         0.86723569    -0.22183791     1.85073773    -0.00062504    -0.00038909    -0.00080171
H        -0.91875191    -0.09194440     1.85728123    -0.00190425    -0.00039685     0.00038995
H        -0.99602413     0.10460699    -0.54874737     0.00000716    -0.00010191    -0.00009893
     6
  Step:    17            Position(A)                                  Velocity(au)
C        -0.04346767     0.00351452    -0.06723399    -0.00003296     0.00001075    -0.00147180
N        -0.04511101    -0.03880010     1.37051113     0.00018993     0.00003836     0.00132183
H         0.99421232     0.04149843    -0.50817726     0.00039919     0.00014757    -0.00028654
H         0.86363450    -0.22396911     1.84634979    -0.00062800    -0.00036625    -0.00073503
H        -0.92955414    -0.09413855     1.85970814    -0.00188284    -0.00037591     0.00045305
H        -0.99638561     0.10413073    -0.54977888    -0.00013498    -0.00006659    -0.00026200
     6
  Step:    18            Position(A)                                  Velocity(au)
C        -0.04361829     0.00355636    -0.07510924    -0.00002064     0.00000416    -0.00131538
N        -0.04404308    -0.03858400     1.37762640     0.00018544     0.00003830     0.00119605
H         0.99644950     0.04237982    -0.51002642     0.00039306     0.00016406    -0.00036489
H         0.86010374    -0.22599721     1.84239034    -0.00060589    -0.00035520    -0.00065691
H        -0.94013452    -0.09621348     1.86242631    -0.00184074    -0.00035734     0.00049715
H        -0.99755704     0.10385080    -0.55172279    -0.00027738    -0.00003331    -0.00042189
     6
  Step:    19            Position(A)                                  Velocity(au)
C        -0.04370120     0.00356163    -0.08211510    -0.00000920    -0.00000217    -0.00117173
N        -0.04301309    -0.03836686     1.38404222     0.00017775     0.00003893     0.00108114
H         0.99865910     0.04335444    -0.51230536     0.00039090     0.00018161    -0.00044078
H         0.85677994    -0.22798750     1.83891807    -0.00055952    -0.00035471    -0.00056741
H        -0.95037876    -0.09818119     1.86533247    -0.00177578    -0.00033989     0.00052362
H        -0.99952369     0.10375394    -0.55455186    -0.00041596    -0.00000216    -0.00057695
     6
  Step:    20            Position(A)                                  Velocity(au)
C        -0.04372208     0.00353192    -0.08832531     0.00000124    -0.00000824    -0.00103774
N        -0.04203826    -0.03814493     1.38982072     0.00016678     0.00004012     0.00097416
H         1.00085854     0.04442825    -0.51499808     0.00039029     0.00020004    -0.00051345
H         0.85379283    -0.22999798     1.83599047    -0.00049024    -0.00036348    -0.00046705
H        -0.96016374    -0.10004714     1.86833232    -0.00168637    -0.00032250     0.00053366
H        -1.00224867     0.10382648    -0.55823023    -0.00054615     0.00002662    -0.00072476
     6
  Step:    21            Position(A)                                  Velocity(au)
C        -0.04368721     0.00346884    -0.09379581     0.00001055    -0.00001404    -0.00091160
N        -0.04113578    -0.03791526     1.39500736     0.00015273     0.00004176     0.00087334
H         1.00305217     0.04560610    -0.51808471     0.00038922     0.00021917    -0.00058214
H         0.85126182    -0.23207877     1.83366100    -0.00040069    -0.00038028    -0.00035736
H        -0.96936052    -0.10181127     1.87133933    -0.00157296    -0.00030453     0.00052878
H        -1.00567117     0.10405358    -0.56270968    -0.00066364     0.00005270    -0.00086290
     6
  Step:    22            Position(A)                                  Velocity(au)
C        -0.04360352     0.00337406    -0.09857211     0.00001859    -0.00001955    -0.00079247
N        -0.04032151    -0.03767555     1.39963751     0.00013597     0.00004374     0.00077781
H         1.00523361     0.04689182    -0.52154161     0.00038614     0.00023888    -0.00064635
H         0.84928894    -0.23427246     1.83197353    -0.00029471    -0.00040391    -0.00024070
H        -0.97784458    -0.10347018     1.87427605    -0.00143770    -0.00028567     0.00051086
H        -1.00970824     0.10441886    -0.56792963    -0.00076482     0.00007578    -0.00098940
     6
  Step:    23            Position(A)                                  Velocity(au)
C        -0.04347843     0.00324935    -0.10269456     0.00002530    -0.00002474    -0.00067997
N        -0.03960889    -0.03742409     1.40374148     0.00011706     0.00004598     0.00068717
H         1.00738815     0.04828855    -0.52534268     0.00037980     0.00025911    -0.00070583
H         0.84795248    -0.23661429     1.83095815    -0.00017706    -0.00043312    -0.00011986
H        -0.98550466    -0.10501907     1.87707580    -0.00128382    -0.00026587     0.00048199
H        -1.01425942     0.10490452    -0.57381979    -0.00084711     0.00009565    -0.00110289
     6
  Step:    24            Position(A)                                  Velocity(au)
C        -0.04331962     0.00309653    -0.10620106     0.00003067    -0.00002961    -0.00057388
N        -0.03900817    -0.03715965     1.40734725     0.00009660     0.00004840     0.00060125
H         1.00949477     0.04979894    -0.52946075     0.00036927     0.00027981    -0.00076056
H         0.84730242    -0.23913192     1.83062875    -0.00005302    -0.00046661     0.00000216
H        -0.99224845    -0.10645307     1.87968372    -0.00111508    -0.00024522     0.00044434
H        -1.01921249     0.10549198    -0.58030359    -0.00090895     0.00011222    -0.00120262
     6
  Step:    25            Position(A)                                  Velocity(au)
C        -0.04313464     0.00291742    -0.10912797     0.00003472    -0.00003417    -0.00047399
N        -0.03852601    -0.03688148     1.41048162     0.00007523     0.00005092     0.00051989
H         1.01152774     0.05142527    -0.53386874     0.00035383     0.00030092    -0.00081063
H         0.84735814    -0.24184509     1.83098236     0.00007194    -0.00050296     0.00012240
H        -0.99800497    -0.10776810     1.88205695    -0.00093530    -0.00022393     0.00040000
H        -1.02444896     0.10616251    -0.58730150    -0.00094963     0.00012552    -0.00128832
     6
  Step:    26            Position(A)                                  Velocity(au)
C        -0.04293073     0.00271380    -0.11151010     0.00003754    -0.00003843    -0.00038000
N        -0.03816551    -0.03658930     1.41317045     0.00005359     0.00005346     0.00044295
H         1.01345789     0.05316941    -0.53854037     0.00033294     0.00032235    -0.00085621
H         0.84810820    -0.24476541     1.83199972     0.00019246    -0.00054072     0.00023807
H        -1.00272453    -0.10896124     1.88416401    -0.00074814    -0.00020221     0.00035089
H        -1.02984908     0.10689786    -0.59473371    -0.00096926     0.00013568    -0.00136010
     6
  Step:    27            Position(A)                                  Velocity(au)
C        -0.04271450     0.00248733    -0.11338044     0.00003925    -0.00004242    -0.00029155
N        -0.03792635    -0.03628325     1.41543862     0.00003223     0.00005593     0.00037022
H         1.01525366     0.05503267    -0.54345050     0.00030625     0.00034401    -0.00089751
H         0.84951192    -0.24789625     1.83364651     0.00030357    -0.00057846     0.00034663
H        -1.00637727    -0.11003099     1.88598367    -0.00055693    -0.00018032     0.00029871
H        -1.03529574     0.10768083    -0.60252210    -0.00096845     0.00014290    -0.00141830
     6
  Step:    28            Position(A)                                  Velocity(au)
C        -0.04249194     0.00223956    -0.11476987     0.00003995    -0.00004614    -0.00020827
N        -0.03780512    -0.03596391     1.41730973     0.00001170     0.00005828     0.00030144
H         1.01688201     0.05701568    -0.54857513     0.00027353     0.00036574    -0.00093465
H         0.85150228    -0.25123297     1.83587525     0.00040086    -0.00061474     0.00044588
H        -1.00895141    -0.11097733     1.88750377    -0.00036472    -0.00015852     0.00024496
H        -1.04067704     0.10849563    -0.61059137    -0.00094824     0.00014746    -0.00146344
     6
  Step:    29            Position(A)                                  Velocity(au)
C        -0.04226822     0.00197193    -0.11570692     0.00003980    -0.00004962    -0.00012973
N        -0.03779570    -0.03563225     1.41880596    -0.00000758     0.00006042     0.00023638
H         1.01830912     0.05911822    -0.55389123     0.00023466     0.00038737    -0.00096777
H         0.85398978    -0.25476338     1.83862725     0.00048067    -0.00064829     0.00053397
H        -1.01045140    -0.11180171     1.88872003    -0.00017429    -0.00013705     0.00019097
H        -1.04588825     0.10932807    -0.61886971    -0.00090996     0.00014963    -0.00149608
     6
  Step:    30            Position(A)                                  Velocity(au)
C        -0.04204776     0.00168575    -0.11621779     0.00003892    -0.00005288    -0.00005555
N        -0.03788968    -0.03528958     1.41994794    -0.00002520     0.00006230     0.00017475
H         1.01950103     0.06133918    -0.55937640     0.00018967     0.00040874    -0.00099690
H         0.85686705    -0.25846852     1.84183491     0.00054018    -0.00067793     0.00060946
H        -1.01089665    -0.11250696     1.88963516     0.00001173    -0.00011617     0.00013793
H        -1.05083317     0.11016570    -0.62728918    -0.00085515     0.00014972    -0.00151687
     6
  Step:    31            Position(A)                                  Velocity(au)
C        -0.04183420     0.00138224    -0.11632643     0.00003745    -0.00005593     0.00001463
N        -0.03807672    -0.03493748     1.42075472    -0.00004086     0.00006387     0.00011628
H         1.02042429     0.06367645    -0.56500860     0.00013869     0.00042964    -0.00102205
H         0.86001385    -0.26232369     1.84542396     0.00057745    -0.00070273     0.00067130
H        -1.01032058    -0.11309724     1.89025827     0.00019083    -0.00009610     0.00008697
H        -1.05542489     0.11099778    -0.63578582    -0.00078546     0.00014802    -0.00152646
     6
  Step:    32            Position(A)                                  Velocity(au)
C        -0.04163041     0.00106249    -0.11605473     0.00003552    -0.00005879     0.00008114
N        -0.03834499    -0.03457778     1.42124376    -0.00005430     0.00006511     0.00006073
H         1.02104656     0.06612703    -0.57076590     0.00008197     0.00044992    -0.00104319
H         0.86330209    -0.26629955     1.84931571     0.00059144    -0.00072192     0.00071881
H        -1.00877003    -0.11357790     1.89060433     0.00036060    -0.00007706     0.00003911
H        -1.05958623     0.11181523    -0.64429973    -0.00070260     0.00014481    -0.00152550
     6
  Step:    33            Position(A)                                  Velocity(au)
C        -0.04143865     0.00072755    -0.11542284     0.00003322    -0.00006146     0.00014423
N        -0.03868149    -0.03421241     1.42143106    -0.00006535     0.00006598     0.00000786
H         1.02133719     0.06868699    -0.57662619     0.00001987     0.00046940    -0.00106027
H         0.86660051    -0.27036337     1.85342907     0.00058193    -0.00073498     0.00075172
H        -1.00630472    -0.11395540     1.89069385     0.00051869    -0.00005923    -0.00000465
H        -1.06324941     0.11261042    -0.65277465    -0.00060820     0.00014032    -0.00151460
     6
  Step:    34            Position(A)                                  Velocity(au)
C        -0.04126062     0.00037838    -0.11444944     0.00003066    -0.00006397     0.00020411
N        -0.03907240    -0.03384339     1.42133123    -0.00007388     0.00006649    -0.00004255
H         1.02126774     0.07135165    -0.58256710    -0.00004716     0.00048795    -0.00107319
H         0.86977923    -0.27448022     1.85768260     0.00054950    -0.00074163     0.00077007
H        -1.00299677    -0.11423712     1.89055255     0.00066285    -0.00004278    -0.00004339
H        -1.06635573     0.11337700    -0.66115779    -0.00050391     0.00013477    -0.00149435
     6
  Step:    35            Position(A)                                  Velocity(au)
C        -0.04109752     0.00001591    -0.11315204     0.00002792    -0.00006630     0.00026095
N        -0.03950340    -0.03347274     1.42095764    -0.00007980     0.00006663    -0.00009070
H         1.02081250     0.07411560    -0.58856583    -0.00011859     0.00050544    -0.00108188
H         0.87271386    -0.27861425     1.86199631     0.00049540    -0.00074177     0.00077424
H        -0.99893031    -0.11443131     1.89021117     0.00079089    -0.00002785    -0.00007619
H        -1.06885562     0.11410977    -0.66939978    -0.00039137     0.00012836    -0.00146535
     6
  Step:    36            Position(A)                                  Velocity(au)
C        -0.04095013    -0.00035897    -0.11154728     0.00002506    -0.00006847     0.00031486
N        -0.03995994    -0.03310241     1.42032257    -0.00008311     0.00006642    -0.00013673
H         1.01994891     0.07697285    -0.59459915    -0.00019378     0.00052176    -0.00108625
H         0.87528877    -0.28272973     1.86629324     0.00042144    -0.00073550     0.00076487
H        -0.99420095    -0.11454690     1.88970517     0.00090080    -0.00001458    -0.00010224
H        -1.07070835     0.11480451    -0.67745454    -0.00027218     0.00012124    -0.00142820
     6
  Step:    37            Position(A)                                  Velocity(au)
C        -0.04081886    -0.00074540    -0.10965120     0.00002216    -0.00007048     0.00036591
N        -0.04042746    -0.03273425     1.41943735    -0.00008381     0.00006589    -0.00018081
H         1.01865797     0.07991687    -0.60064337    -0.00027204     0.00053683    -0.00108621
H         0.87739972    -0.28679198     1.87050064     0.00032989    -0.00072309     0.00074283
H        -0.98891473    -0.11459340     1.88907439     0.00099075    -0.00000304    -0.00012079
H        -1.07188190     0.11545784    -0.68527934    -0.00014792     0.00011358    -0.00138349
     6
  Step:    38            Position(A)                                  Velocity(au)
C        -0.04070383    -0.00114254    -0.10747947     0.00001925    -0.00007234     0.00041413
N        -0.04089166    -0.03236993     1.41831256    -0.00008198     0.00006507    -0.00022302
H         1.01692461     0.08294073    -0.60667447    -0.00035263     0.00055057    -0.00108172
H         0.87895612    -0.29076823     1.87455119     0.00022337    -0.00070494     0.00070916
H        -0.98318685    -0.11458074     1.88836239     0.00105925     0.00000669    -0.00013122
H        -1.07235272     0.11606713    -0.69283469    -0.00002010     0.00010548    -0.00133182
     6
  Step:    39            Position(A)                                  Velocity(au)
C        -0.04060491    -0.00154954    -0.10504761     0.00001637    -0.00007403     0.00045950
N        -0.04133878    -0.03201094     1.41695818    -0.00007773     0.00006399    -0.00026344
H         1.01473805     0.08603716    -0.61266814    -0.00043470     0.00056291    -0.00107274
H         0.87988276    -0.29462838     1.87838397     0.00010479    -0.00068161     0.00066512
H        -0.97713970    -0.11451906     1.88761572     0.00110522     0.00001460    -0.00013310
H        -1.07210532     0.11663037    -0.70008431     0.00010981     0.00009706    -0.00127378
     6
  Step:    40            Position(A)                                  Velocity(au)
C        -0.04052180    -0.00196556    -0.10237125     0.00001357    -0.00007557     0.00050199
N        -0.04175582    -0.03165856     1.41538387    -0.00007124     0.00006270    -0.00030212
H         1.01209205     0.08919860    -0.61859998    -0.00051742     0.00057383    -0.00105927
H         0.88012110    -0.29834559     1.88194523    -0.00002273    -0.00065372     0.00061205
H        -0.97090028    -0.11441848     1.88688270     0.00112807     0.00002071    -0.00012624
H        -1.07113199     0.11714608    -0.70699512     0.00024038     0.00008840    -0.00120996
     6
  Step:    41            Position(A)                                  Velocity(au)
C        -0.04045405    -0.00238976    -0.09946624     0.00001085    -0.00007695     0.00054153
N        -0.04213085    -0.03131383     1.41359911    -0.00006271     0.00006123    -0.00033903
H         1.00898513     0.09241729    -0.62444565    -0.00059987     0.00058328    -0.00104135
H         0.87963000    -0.30189682     1.88518905    -0.00015602    -0.00062201     0.00055142
H        -0.96459725    -0.11428881     1.88621216     0.00112782     0.00002510    -0.00011068
H        -1.06943262     0.11761327    -0.71353730     0.00037024     0.00007960    -0.00114099
     6
  Step:    42            Position(A)                                  Velocity(au)
C        -0.04040110    -0.00282130    -0.09634883     0.00000824    -0.00007816     0.00057802
N        -0.04245326    -0.03097756     1.41161348    -0.00005242     0.00005964    -0.00037414
H         1.00542079     0.09568534    -0.63018106    -0.00068114     0.00059124    -0.00101907
H         0.87838593    -0.30526312     1.88807769    -0.00029187    -0.00058725     0.00048475
H        -0.95835754    -0.11413931     1.88565178     0.00110513     0.00002791    -0.00008681
H        -1.06701445     0.11803135    -0.71968434     0.00049805     0.00007073    -0.00106751
     6
  Step:    43            Position(A)                                  Velocity(au)
C        -0.04036233    -0.00325932    -0.09303578     0.00000576    -0.00007922     0.00061137
N        -0.04271398    -0.03065035     1.40943688    -0.00004066     0.00005795    -0.00040735
H         1.00140754     0.09899478    -0.63578266    -0.00076029     0.00059771    -0.00099253
H         0.87638292    -0.30842991     1.89058185    -0.00042712    -0.00055025     0.00041360
H        -0.95230278    -0.11397833     1.88524640     0.00106129     0.00002932    -0.00005530
H        -1.06389185     0.11840015    -0.72541320     0.00062252     0.00006186    -0.00099015
     6
  Step:    44            Position(A)                                  Velocity(au)
C        -0.04033703    -0.00370296    -0.08954449     0.00000340    -0.00008011     0.00064145
N        -0.04290576    -0.03033258     1.40707977    -0.00002778     0.00005621    -0.00043856
H         0.99695902     0.10233762    -0.64122762    -0.00083641     0.00060269    -0.00096193
H         0.87363218    -0.31138721     1.89268089    -0.00055871    -0.00051186     0.00033956
H        -0.94654582    -0.11381304     1.88503634     0.00099825     0.00002957    -0.00001714
H        -1.06008604     0.11871981    -0.73070431     0.00074241     0.00005305    -0.00090959
     6