     6
  Step:     0            Position(A)                                  Velocity(au)
C        -0.04051991     0.02828272    -0.00110314     0.00008970    -0.00005942    -0.00015289
N        -0.04115399    -0.05703346     1.30957321     0.00015653     0.00012473     0.00011669
H         0.91971202    -0.06759477    -0.47677965    -0.00059879     0.00026850     0.00047568
H         0.82765777    -0.13057207     1.87593583    -0.00088508    -0.00070580    -0.00123537
H        -0.90477865    -0.06511543     1.86030895    -0.00160865    -0.00051099     0.00106390
H        -1.00080093     0.04904250    -0.55256882    -0.00015147    -0.00007693    -0.00010396
     6
  Step:     1            Position(A)                                  Velocity(au)
C        -0.04004137     0.02799461    -0.00222860     0.00008431    -0.00004594    -0.00025733
N        -0.04029353    -0.05635469     1.31047571     0.00015529     0.00012363     0.00021272
H         0.91664485    -0.06623664    -0.47440123    -0.00051325     0.00022697     0.00038849
H         0.82282652    -0.13452261     1.86909811    -0.00086507    -0.00074018    -0.00125294
H        -0.91375490    -0.06799709     1.86617983    -0.00165032    -0.00054242     0.00106841
H        -1.00158534     0.04851739    -0.55311099    -0.00013382    -0.00011502    -0.00009370
     6
  Step:     2            Position(A)                                  Velocity(au)
C        -0.03959751     0.02778010    -0.00391856     0.00007704    -0.00003253    -0.00035843
N        -0.03945498    -0.05568076     1.31190059     0.00014842     0.00012283     0.00030679
H         0.91409653    -0.06511148    -0.47252920    -0.00040961     0.00018339     0.00029089
H         0.81819303    -0.13867043     1.86222730    -0.00081103    -0.00077724    -0.00124543
H        -0.92283492    -0.07105003     1.87199846    -0.00164625    -0.00057268     0.00104488
H        -1.00226506     0.04778408    -0.55359401    -0.00011351    -0.00015272    -0.00008264
     6
  Step:     3            Position(A)                                  Velocity(au)
C        -0.03919803     0.02763846    -0.00615235     0.00006812    -0.00001934    -0.00045498
N        -0.03866877    -0.05501001     1.31383422     0.00013610     0.00012232     0.00039753
H         0.91216083    -0.06422905    -0.47121682    -0.00029028     0.00013834     0.00018464
H         0.81394810    -0.14303113     1.85546417    -0.00072175    -0.00081696    -0.00121163
H        -0.93177663    -0.07426635     1.87761832    -0.00159932    -0.00060101     0.00099581
H        -1.00282794     0.04684553    -0.55401571    -0.00009148    -0.00018962    -0.00007159
     6
  Step:     4            Position(A)                                  Velocity(au)
C        -0.03885128     0.02756822    -0.00890287     0.00005784    -0.00000649    -0.00054576
N        -0.03796404    -0.05434079     1.31625561     0.00011865     0.00012206     0.00048356
H         0.91091645    -0.06359600    -0.47050644    -0.00015850     0.00009240     0.00007206
H         0.81028619    -0.14762028     1.84895381    -0.00059741    -0.00085922    -0.00115131
H        -0.94035564    -0.07763420     1.88290763    -0.00151327    -0.00062670     0.00092417
H        -1.00326722     0.04570678    -0.55437833    -0.00006878    -0.00022532    -0.00006135
     6
  Step:     5            Position(A)                                  Velocity(au)
C        -0.03856382     0.02756726    -0.01213668     0.00004656     0.00000588    -0.00062959
N        -0.03736774    -0.05367157     1.31913650     0.00009660     0.00012205     0.00056353
H         0.91042290    -0.06321585    -0.47042664    -0.00001817     0.00004620    -0.00004406
H         0.80739745    -0.15245263     1.84283991    -0.00043986    -0.00090372    -0.00106544
H        -0.94836984    -0.08113816     1.88775194    -0.00139260    -0.00064911     0.00083337
H        -1.00358209     0.04437482    -0.55468847    -0.00004654    -0.00025947    -0.00005271
     6
  Step:     6            Position(A)                                  Velocity(au)
C        -0.03834015     0.02763277    -0.01581415     0.00003470     0.00001765    -0.00070531
N        -0.03690359    -0.05300098     1.32244174     0.00007065     0.00012223     0.00063619
H         0.91071698    -0.06308886    -0.47099008     0.00012620     0.00000035    -0.00016062
H         0.80545759    -0.15754086     1.83725788    -0.00025304    -0.00094985    -0.00095634
H        -0.95564287    -0.08475983     1.89205592    -0.00124233    -0.00066773     0.00072706
H        -1.00377809     0.04285850    -0.55495693    -0.00002594    -0.00029169    -0.00004639
     6
  Step:     7            Position(A)                                  Velocity(au)
C        -0.03818240     0.02776133    -0.01988982     0.00002270     0.00002871    -0.00077189
N        -0.03659117    -0.05232794     1.32612987     0.00004165     0.00012254     0.00070047
H         0.91181011    -0.06321196    -0.47219222     0.00026974    -0.00004448    -0.00027439
H         0.80461597    -0.16289385     1.83232731    -0.00004302    -0.00099667    -0.00082769
H        -0.96202610    -0.08847822     1.89574417    -0.00106779    -0.00068212     0.00060900
H        -1.00386729     0.04116843    -0.55519843    -0.00000818    -0.00032165    -0.00004307
     6
  Step:     8            Position(A)                                  Velocity(au)
C        -0.03809021     0.02794891    -0.02431290     0.00001103     0.00003894    -0.00082839
N        -0.03644497    -0.05165182     1.33015414     0.00001065     0.00012287     0.00075545
H         0.91368693    -0.06357864    -0.47401119     0.00040749    -0.00008766    -0.00038225
H         0.80498388    -0.16851451     1.82814477     0.00018205    -0.00104284    -0.00068439
H        -0.96739966    -0.09227025     1.89876127    -0.00087466    -0.00069195     0.00048300
H        -1.00386813     0.03931698    -0.55543112     0.00000565    -0.00034902    -0.00004329
     6
  Step:     9            Position(A)                                  Velocity(au)
C        -0.03806068     0.02819091    -0.02902799     0.00000016     0.00004824    -0.00087408
N        -0.03647363    -0.05097254     1.33446345    -0.00002119     0.00012312     0.00080048
H         0.91630528    -0.06417892    -0.47640895     0.00053469    -0.00012851    -0.00048146
H         0.80662419    -0.17439761     1.82477762     0.00041244    -0.00108668    -0.00053235
H        -0.97167465    -0.09611127     1.90107229    -0.00066899    -0.00069701     0.00035297
H        -1.00380495     0.03731827    -0.55567595     0.00001457    -0.00037349    -0.00004746
     6
  Step:    10            Position(A)                                  Velocity(au)
C        -0.03808844     0.02848219    -0.03397589    -0.00000950     0.00005651    -0.00090843
N        -0.03667928    -0.05029074     1.33900356    -0.00005266     0.00012315     0.00083516
H         0.91959797    -0.06499935    -0.47933375     0.00064710    -0.00016643    -0.00056983
H         0.80954343    -0.18052782     1.82225957     0.00063740    -0.00112627    -0.00037801
H        -0.97479539    -0.09997576     1.90266336    -0.00045720    -0.00069728     0.00022285
H        -1.00370707     0.03518803    -0.55595580     0.00001781    -0.00039479    -0.00005582
     6
  Step:    11            Position(A)                                  Velocity(au)
C        -0.03816596     0.02881718    -0.03909496    -0.00001759     0.00006370    -0.00093133
N        -0.03705723    -0.04960782     1.34371844    -0.00008252     0.00012285     0.00085946
H         0.92347619    -0.06602320    -0.48272356     0.00074134    -0.00020086    -0.00064592
H         0.81368769    -0.18687856     1.82058868     0.00084613    -0.00115968    -0.00022784
H        -0.97674115    -0.10383830     1.90354187    -0.00024587    -0.00069298     0.00009656
H        -1.00360754     0.03294339    -0.55629455     0.00001490    -0.00041274    -0.00006841
     6
  Step:    12            Position(A)                                  Velocity(au)
C        -0.03828391     0.02918996    -0.04432308    -0.00002386     0.00006978    -0.00094311
N        -0.03759613    -0.04892586     1.34855225    -0.00010965     0.00012213     0.00087377
H         0.92783440    -0.06723098    -0.48651001     0.00081516    -0.00023143    -0.00070909
H         0.81894399    -0.19341206     1.81972823     0.00102880    -0.00118525    -0.00008781
H        -0.97752705    -0.10767482     1.90373620    -0.00004151    -0.00068461    -0.00002221
H        -1.00354153     0.03060241    -0.55671589     0.00000567    -0.00042734    -0.00008508
     6
  Step:    13            Position(A)                                  Velocity(au)
C        -0.03843170     0.02959451    -0.04960031    -0.00002814     0.00007478    -0.00094469
N        -0.03827865    -0.04824746     1.35345148    -0.00013312     0.00012094     0.00087899
H         0.93255629    -0.06860116    -0.49062216     0.00086748    -0.00025795    -0.00075936
H         0.82514754    -0.20008116     1.81961057     0.00117768    -0.00120187     0.00003721
H        -0.97720359    -0.11146426     1.90329451     0.00014983    -0.00067304    -0.00013020
H        -1.00354437     0.02818323    -0.55724224    -0.00000969    -0.00043876    -0.00010549
     6
  Step:    14            Position(A)                                  Velocity(au)
C        -0.03859817     0.03002496    -0.05487191    -0.00003043     0.00007877    -0.00093755
N        -0.03908259    -0.04757542     1.35836746    -0.00015226     0.00011931     0.00087643
H         0.93752115    -0.07011140    -0.49498935     0.00089844    -0.00028050    -0.00079718
H         0.83209450    -0.20683278     1.82014375     0.00128789    -0.00120927     0.00014384
H        -0.97585402    -0.11519035     1.90228236     0.00032300    -0.00065947    -0.00022480
H        -1.00364969     0.02570304    -0.55789383    -0.00003067    -0.00044741    -0.00012921
     6
  Step:    15            Position(A)                                  Velocity(au)
C        -0.03877224     0.03047592    -0.06009130    -0.00003082     0.00008190    -0.00092364
N        -0.03998246    -0.04691235     1.36325857    -0.00016674     0.00011736     0.00086779
H         0.94260964    -0.07173987    -0.49954250     0.00090918    -0.00029942    -0.00082340
H         0.83955875    -0.21361264     1.82122014     0.00135771    -0.00120800     0.00023040
H        -0.97358931    -0.11884355     1.90077907     0.00047410    -0.00064535    -0.00030421
H        -1.00388762     0.02317675    -0.55868805    -0.00005657    -0.00045396    -0.00015576
     6
  Step:    16            Position(A)                                  Velocity(au)
C        -0.03894352     0.03094277    -0.06522262    -0.00002947     0.00008435    -0.00090512
N        -0.04095120    -0.04626028     1.36809226    -0.00017651     0.00011521     0.00085492
H         0.94770984    -0.07346682    -0.50421675     0.00090183    -0.00031529    -0.00083948
H         0.84730962    -0.22037023     1.82272577     0.00138824    -0.00119934     0.00029682
H        -0.97054109    -0.12242242     1.89887324     0.00060054    -0.00063228    -0.00036744
H        -1.00428367     0.02061578    -0.55963934    -0.00008654    -0.00045917    -0.00018470
     6
  Step:    17            Position(A)                                  Velocity(au)
C        -0.03910272     0.03142190    -0.07024184    -0.00002661     0.00008632    -0.00088407
N        -0.04196195    -0.04562036     1.37284610    -0.00018174     0.00011303     0.00083960
H         0.95272323    -0.07527574    -0.50895689     0.00087902    -0.00032882    -0.00084737
H         0.85512729    -0.22706270     1.82454888     0.00138254    -0.00118484     0.00034427
H        -0.96685455    -0.12593431     1.89665837     0.00070081    -0.00062180    -0.00041411
H        -1.00485809     0.01802734    -0.56075940    -0.00011968    -0.00046385    -0.00021566
     6
  Step:    18            Position(A)                                  Velocity(au)
C        -0.03924195     0.03191075    -0.07513619    -0.00002249     0.00008798    -0.00086214
N        -0.04298914    -0.04499279     1.37750723    -0.00018269     0.00011097     0.00082324
H         0.95756683    -0.07715409    -0.51371878     0.00084333    -0.00034070    -0.00084891
H         0.86281289    -0.23365659     1.82658629     0.00134449    -0.00116596     0.00037465
H        -0.96268250    -0.12939505     1.89422959     0.00077409    -0.00061521    -0.00044418
H        -1.00562577     0.01541432    -0.56205762    -0.00015514    -0.00046866    -0.00024828
     6
  Step:    19            Position(A)                                  Velocity(au)
C        -0.03935468     0.03240772    -0.07990198    -0.00001732     0.00008947    -0.00084045
N        -0.04400898    -0.04437692     1.38207035    -0.00017964     0.00010914     0.00080671
H         0.96217260    -0.07909321    -0.51846880     0.00079692    -0.00035150    -0.00084560
H         0.87019209    -0.24012707     1.82874676     0.00127800    -0.00114371     0.00039012
H        -0.95818105    -0.13282758     1.89168137     0.00081990    -0.00061345    -0.00045780
H        -1.00659641     0.01277607    -0.56354135    -0.00019201    -0.00047401    -0.00028222
     6
  Step:    20            Position(A)                                  Velocity(au)
C        -0.03943575     0.03291195    -0.08454143    -0.00001132     0.00009085    -0.00081952
N        -0.04499948    -0.04377148     1.38653490    -0.00017283     0.00010757     0.00079037
H         0.96648499    -0.08108766    -0.52318168     0.00074146    -0.00036164    -0.00083843
H         0.87711462    -0.24645559     1.83095203     0.00118658    -0.00111861     0.00039282
H        -0.95350720    -0.13626001     1.88910644     0.00083793    -0.00061713    -0.00045515
H        -1.00777451     0.01010974    -0.56521592    -0.00022935    -0.00048005    -0.00031706
     6
  Step:    21            Position(A)                                  Velocity(au)
C        -0.03948120     0.03342296    -0.08905961    -0.00000470     0.00009217    -0.00079945
N        -0.04594020    -0.04317490     1.39090223    -0.00016244     0.00010629     0.00077418
H         0.97045796    -0.08313431    -0.52783776     0.00067820    -0.00037136    -0.00082798
H         0.88345142    -0.25262691     1.83313627     0.00107337    -0.00109076     0.00038471
H        -0.94881773    -0.13972361     1.88659532     0.00082799    -0.00062653    -0.00043650
H        -1.00915925     0.00741180    -0.56708429    -0.00026613    -0.00048667    -0.00035226
     6
  Step:    22            Position(A)                                  Velocity(au)
C        -0.03948823     0.03394046    -0.09346198     0.00000234     0.00009343    -0.00078008
N        -0.04681205    -0.04258551     1.39517349    -0.00014870     0.00010527     0.00075789
H         0.97405259    -0.08523145    -0.53242061     0.00060819    -0.00038081    -0.00081456
H         0.88909169    -0.25862675     1.83524477     0.00094132    -0.00106006     0.00036760
H        -0.94426810    -0.14325105     1.88423580     0.00079027    -0.00064172    -0.00040230
H        -1.01074408     0.00467932    -0.56914656    -0.00030125    -0.00049360    -0.00038721
     6
  Step:    23            Position(A)                                  Velocity(au)
C        -0.03945516     0.03446414    -0.09775311     0.00000959     0.00009460    -0.00076116
N        -0.04759732    -0.04200168     1.39934845    -0.00013185     0.00010452     0.00074119
H         0.97723593    -0.08737818    -0.53691556     0.00053249    -0.00039008    -0.00079839
H         0.89394185    -0.26444068     1.83723300     0.00079349    -0.00102642     0.00034323
H        -0.94001066    -0.14687522     1.88211197     0.00072554    -0.00066264    -0.00035334
H        -1.01251647     0.00191090    -0.57139956    -0.00033358    -0.00050051    -0.00042128
     6
  Step:    24            Position(A)                                  Velocity(au)
C        -0.03938142     0.03499361    -0.10193610     0.00001687     0.00009566    -0.00074246
N        -0.04827994    -0.04142189     1.40342522    -0.00011225     0.00010400     0.00072381
H         0.97998088    -0.08957422    -0.54130913     0.00045220    -0.00039927    -0.00077967
H         0.89792573    -0.27005399     1.83906600     0.00063316    -0.00098985     0.00031328
H        -0.93619055    -0.15062834     1.88030199     0.00063556    -0.00068910    -0.00029096
H        -1.01445784    -0.00089287    -0.57383670    -0.00036203    -0.00050700    -0.00045382
     6
  Step:    25            Position(A)                                  Velocity(au)
C        -0.03926754     0.03552836    -0.10601270     0.00002395     0.00009661    -0.00072380
N        -0.04884601    -0.04084467     1.40740057    -0.00009032     0.00010372     0.00070561
H         0.98226648    -0.09181990    -0.54558905     0.00036854    -0.00040853    -0.00075868
H         0.90098549    -0.27545230     1.84071810     0.00046379    -0.00095053     0.00027941
H        -0.93294033    -0.15454121     1.87887519     0.00052312    -0.00072082    -0.00021702
H        -1.01654385    -0.00372928    -0.57644808    -0.00038558    -0.00051272    -0.00048426
     6
  Step:    26            Position(A)                                  Velocity(au)
C        -0.03911518     0.03606778    -0.10998356     0.00003064     0.00009743    -0.00070504
N        -0.04928419    -0.04026866     1.41127041    -0.00006660     0.00010366     0.00068650
H         0.98407848    -0.09411639    -0.54974448     0.00028282    -0.00041804    -0.00073577
H         0.90308236    -0.28062234     1.84217255     0.00028897    -0.00090878     0.00024323
H        -0.93037432    -0.15864267     1.87788912     0.00039207    -0.00075739    -0.00013394
H        -1.01874493    -0.00659347    -0.57922089    -0.00040339    -0.00051729    -0.00051213
     6
  Step:    27            Position(A)                                  Velocity(au)
C        -0.03892702     0.03661119    -0.11384859     0.00003676     0.00009811    -0.00068612
N        -0.04958623    -0.03969255     1.41503043    -0.00004168     0.00010382     0.00066654
H         0.98540978    -0.09646599    -0.55376643     0.00019639    -0.00042805    -0.00071131
H         0.90419711    -0.28555258     1.84342133     0.00011230    -0.00086501     0.00020630
H        -0.92858278    -0.16295894     1.87738660     0.00024725    -0.00079832    -0.00004462
H        -1.02102715    -0.00947852    -0.58213997    -0.00041474    -0.00052036    -0.00053708
     6
  Step:    28            Position(A)                                  Velocity(au)
C        -0.03870673     0.03715789    -0.11760720     0.00004213     0.00009865    -0.00066698
N        -0.04974730    -0.03911512     1.41867653    -0.00001620     0.00010417     0.00064582
H         0.98626068    -0.09887255    -0.55764803     0.00011065    -0.00043889    -0.00068573
H         0.90433019    -0.29023371     1.84446485    -0.00006262    -0.00081967     0.00017015
H        -0.92762707    -0.16751302     1.87739335     0.00009419    -0.00084299     0.00004769
H        -1.02335323    -0.01237536    -0.58518852    -0.00041913    -0.00052154    -0.00055888
     6
  Step:    29            Position(A)                                  Velocity(au)
C        -0.03845892     0.03770716    -0.12125846     0.00004660     0.00009906    -0.00064758
N        -0.04976622    -0.03853527     1.42220519     0.00000917     0.00010470     0.00062446
H         0.98663907    -0.10134193    -0.56138463     0.00002699    -0.00045100    -0.00065948
H         0.90350147    -0.29465879     1.84531166    -0.00023228    -0.00077319     0.00013624
H        -0.92753632    -0.17232424     1.87791645    -0.00006111    -0.00089074     0.00013956
H        -1.02568353    -0.01527265    -0.58834889    -0.00041624    -0.00052039    -0.00057747
     6
  Step:    30            Position(A)                                  Velocity(au)
C        -0.03818909     0.03825829    -0.12480104     0.00004999     0.00009933    -0.00062782
N        -0.04964545    -0.03795201     1.42561354     0.00003377     0.00010539     0.00060258
H         0.98656048    -0.10388266    -0.56497403    -0.00005317    -0.00046495    -0.00063300
H         0.90174986    -0.29882296     1.84597833    -0.00039328    -0.00072590     0.00010602
H        -0.92830589    -0.17740812     1.87894365    -0.00021259    -0.00094093     0.00022750
H        -1.02797715    -0.01815630    -0.59160357    -0.00040594    -0.00051635    -0.00059300
     6
  Step:    31            Position(A)                                  Velocity(au)
C        -0.03790361     0.03881058    -0.12823280     0.00005214     0.00009947    -0.00060751
N        -0.04939102    -0.03736452     1.42889909     0.00005701     0.00010621     0.00058020
H         0.98604845    -0.10650699    -0.56841651    -0.00012829    -0.00048159    -0.00060681
H         0.89913262    -0.30272261     1.84648942    -0.00054236    -0.00067787     0.00008097
H        -0.92989791    -0.18277678     1.88044369    -0.00035447    -0.00099306     0.00030818
H        -1.03019305    -0.02100871    -0.59493635    -0.00038832    -0.00050866    -0.00060586
     6
  Step:    32            Position(A)                                  Velocity(au)
C        -0.03760988     0.03936332    -0.13155006     0.00005284     0.00009948    -0.00058625
N        -0.04901214    -0.03677213     1.43205913     0.00007835     0.00010712     0.00055720
H         0.98513525    -0.10923272    -0.57171521    -0.00019661    -0.00050221    -0.00058150
H         0.89572469    -0.30635355     1.84687784    -0.00067638    -0.00062867     0.00006268
H        -0.93224377    -0.18844027     1.88236729    -0.00048160    -0.00104704     0.00037848
H        -1.03229114    -0.02380712    -0.59833419    -0.00036370    -0.00049611    -0.00061694
     6
  Step:    33            Position(A)                                  Velocity(au)
C        -0.03731659     0.03991580    -0.13474618     0.00005178     0.00009935    -0.00056319
N        -0.04852058    -0.03617434     1.43508971     0.00009741     0.00010811     0.00053314
H         0.98386405    -0.11208663    -0.57487713    -0.00025560    -0.00052908    -0.00055813
H         0.89161788    -0.30970724     1.84718578    -0.00079236    -0.00057681     0.00005306
H        -0.93524863    -0.19440957     1.88464864    -0.00058984    -0.00110356     0.00043552
H        -1.03423387    -0.02652059    -0.60179064    -0.00033285    -0.00047667    -0.00062814
     6
  Step:    34            Position(A)                                  Velocity(au)
C        -0.03703455     0.04046720    -0.13780787     0.00005382     0.00011003    -0.00059540
N        -0.04792974    -0.03557090     1.43798302     0.00012669     0.00012120     0.00056267
H         0.98229518    -0.11511156    -0.57791687    -0.00033371    -0.00062915    -0.00059927
H         0.88692047    -0.31276277     1.84746742    -0.00098558    -0.00057613     0.00006095
H        -0.93879774    -0.20070241     1.88720659    -0.00075144    -0.00129380     0.00052960
H        -1.03598963    -0.02910356    -0.60531373    -0.00033106    -0.00049622    -0.00071558
     6
  Step:    35            Position(A)                                  Velocity(au)
C        -0.03671492     0.04107233    -0.14087203     0.00006183     0.00010794    -0.00051816
N        -0.04720547    -0.03489792     1.44091722     0.00013145     0.00012112     0.00050087
H         0.98046562    -0.11847852    -0.58146350    -0.00033778    -0.00057370    -0.00066461
H         0.88126088    -0.31601415     1.84776065    -0.00104146    -0.00060758     0.00004379
H        -0.94316554    -0.20773889     1.89037272    -0.00080354    -0.00123087     0.00060174
H        -1.03800592    -0.03201141    -0.60948858    -0.00038071    -0.00055725    -0.00076672
     6
  Step:    36            Position(A)                                  Velocity(au)
C        -0.03634702     0.04166747    -0.14356957     0.00006953     0.00010641    -0.00046633
N        -0.04646804    -0.03422409     1.44355242     0.00013226     0.00012148     0.00045699
H         0.97853926    -0.12149085    -0.58530695    -0.00036870    -0.00051257    -0.00069877
H         0.87533997    -0.31951872     1.84795432    -0.00107962    -0.00065572     0.00002891
H        -0.94773272    -0.21438906     1.89389760    -0.00082345    -0.00116704     0.00065322
H        -1.04022289    -0.03529990    -0.61383934    -0.00039473    -0.00062089    -0.00077715
     6
  Step:    37            Position(A)                                  Velocity(au)
C        -0.03594161     0.04225587    -0.14605850     0.00007458     0.00010531    -0.00043532
N        -0.04573442    -0.03354679     1.44599989     0.00013039     0.00012221     0.00042792
H         0.97636498    -0.12417936    -0.58923515    -0.00041537    -0.00046257    -0.00070414
H         0.86925331    -0.32330700     1.84808219    -0.00109876    -0.00070277     0.00002330
H        -0.95232394    -0.22071870     1.89763786    -0.00081397    -0.00111726     0.00067940
H        -1.04239607    -0.03891688    -0.61813203    -0.00037260    -0.00067060    -0.00075779
     6
  Step:    38            Position(A)                                  Velocity(au)
C        -0.03551742     0.04283884    -0.14841174     0.00007670     0.00010437    -0.00041345
N        -0.04501766    -0.03286469     1.44831226     0.00012603     0.00012315     0.00040556
H         0.97391902    -0.12663611    -0.59313918    -0.00046193    -0.00042646    -0.00069630
H         0.86311830    -0.32733574     1.84821354    -0.00109626    -0.00074450     0.00002958
H        -0.95678666    -0.22681646     1.90145461    -0.00077844    -0.00107891     0.00068344
H        -1.04436738    -0.04275907    -0.62226835    -0.00032858    -0.00070510    -0.00072594
     6
  Step:    39            Position(A)                                  Velocity(au)
C        -0.03508846     0.04341679    -0.15065738     0.00007663     0.00010349    -0.00039539
N        -0.04433261    -0.03217697     1.45051108     0.00011897     0.00012423     0.00038623
H         0.97122679    -0.12892298    -0.59698035    -0.00050285    -0.00039946    -0.00068394
H         0.85705926    -0.33158832     1.84841125    -0.00107191    -0.00078532     0.00004630
H        -0.96098281    -0.23271975     1.90523995    -0.00071951    -0.00104484     0.00067005
H        -1.04605099    -0.04675990    -0.62620684    -0.00027206    -0.00073001    -0.00068820
     6
  Step:    40            Position(A)                                  Velocity(au)
C        -0.03466509     0.04398994    -0.15280942     0.00007491     0.00010267    -0.00037941
N        -0.04369445    -0.03148288     1.45260812     0.00010928     0.00012548     0.00036872
H         0.96832607    -0.13107914    -0.60074636    -0.00053670    -0.00037845    -0.00067046
H         0.85119601    -0.33607051     1.84872852    -0.00102701    -0.00082828     0.00007183
H        -0.96478938    -0.23843770     1.90890720    -0.00064004    -0.00101137     0.00064252
H        -1.04739335    -0.05087860    -0.62992288    -0.00020751    -0.00074894    -0.00064676
     6
  Step:    41            Position(A)                                  Velocity(au)
C        -0.03425540     0.04455852    -0.15487668     0.00007187     0.00010190    -0.00036483
N        -0.04311729    -0.03078158     1.45461157     0.00009724     0.00012688     0.00035256
H         0.96525828    -0.13313166    -0.60443643    -0.00056306    -0.00036173    -0.00065743
H         0.84563813    -0.34079947     1.84921001    -0.00096375    -0.00087482     0.00010466
H        -0.96810058    -0.24396696     1.91238524    -0.00054324    -0.00097693     0.00060342
H        -1.04835866    -0.05508867    -0.63339933    -0.00013761    -0.00076393    -0.00060273
     6
  Step:    42            Position(A)                                  Velocity(au)
C        -0.03386599     0.04512285    -0.15686561     0.00006776     0.00010120    -0.00035130
N        -0.04261336    -0.03007219     1.45652798     0.00008320     0.00012845     0.00033753
H         0.96206588    -0.13510094    -0.60805578    -0.00058185    -0.00034834    -0.00064569
H         0.84048088    -0.34579693     1.84989212    -0.00088496    -0.00092540     0.00014328
H        -0.97082922    -0.24929933     1.91561615    -0.00043247    -0.00094096     0.00055500
H        -1.04892330    -0.05937206    -0.63662405    -0.00006429    -0.00077623    -0.00055689
     6
  Step:    43            Position(A)                                  Velocity(au)
C        -0.03350224     0.04568331    -0.15878129     0.00006277     0.00010058    -0.00033863
N        -0.04219259    -0.02935385     1.45836309     0.00006760     0.00013018     0.00032349
H         0.95879119    -0.13700334    -0.61161304    -0.00059315    -0.00033766    -0.00063571
H         0.83580210    -0.35108506     1.85080250    -0.00079392    -0.00097984     0.00018608
H        -0.97290734    -0.25442545     1.91855388    -0.00031113    -0.00090341     0.00049928
H        -1.04907326    -0.06371623    -0.63958895     0.00001085    -0.00078668    -0.00050991
     6
  Step:    44            Position(A)                                  Velocity(au)
C        -0.03316856     0.04624039    -0.16062795     0.00005706     0.00010006    -0.00032665
N        -0.04186229    -0.02862581     1.46012215     0.00005092     0.00013203     0.00031037
H         0.95547560    -0.13885256    -0.61511890    -0.00059717    -0.00032928    -0.00062776
H         0.83165997    -0.35668350     1.85195957    -0.00069427    -0.00103747     0.00023136
H        -0.97428605    -0.25933676     1.92116341    -0.00018257    -0.00086450     0.00043813
H        -1.04880270    -0.06811253    -0.64228944     0.00008647    -0.00079587    -0.00046238
     6