 Fermi distribution function

Calculation with static geometry


********************************************************************************
 iSCC Total electronic   Diff electronic      SCC error    
   13   -0.52611698E+01   -0.80202511E-11    0.88915567E-06
********************************************************************************

 Total charge:     1.00000000

 Atomic gross charges (e)
 Atom           Charge
    1       0.31416789
    2      -0.19434182
    3       0.18127303
    4       0.25433174
    5       0.25825517
    6       0.18631399

Nr. of electrons (up):     12.00000000
Atom populations (up)
 Atom       Population
    1       3.68583211
    2       5.19434182
    3       0.81872697
    4       0.74566826
    5       0.74174483
    6       0.81368601

l-shell populations (up)
 Atom Sh.   l       Population
    1   1   0       1.41761902
    1   2   1       2.26821309
    2   1   0       1.54181830
    2   2   1       3.65252352
    3   1   0       0.81872697
    4   1   0       0.74566826
    5   1   0       0.74174483
    6   1   0       0.81368601

Orbital populations (up)
 Atom Sh.   l   m       Population  Label
    1   1   0   0       1.41761902  s
    1   2   1  -1       0.37880714  p_y
    1   2   1   0       0.87371423  p_z
    1   2   1   1       1.01569172  p_x
    2   1   0   0       1.54181830  s
    2   2   1  -1       1.40055167  p_y
    2   2   1   0       1.06250536  p_z
    2   2   1   1       1.18946648  p_x
    3   1   0   0       0.81872697  s
    4   1   0   0       0.74566826  s
    5   1   0   0       0.74174483  s
    6   1   0   0       0.81368601  s

Fermi level:                        -0.5205342705 H          -14.1645 eV
Band energy:                        -8.6453840366 H         -235.2529 eV
TS:                                  0.0000000000 H            0.0000 eV
Band free energy (E-TS):            -8.6453840366 H         -235.2529 eV
Extrapolated E(0K):                 -8.6453840366 H         -235.2529 eV
Input / Output electrons (q):     12.0000000000     12.0000000000

Energy H0:                          -5.3983160454 H         -146.8957 eV
Energy SCC:                          0.1371462215 H            3.7319 eV
Total Electronic energy:            -5.2611698239 H         -143.1637 eV
Repulsive energy:                    0.1349827249 H            3.6731 eV
Total energy:                       -5.1261870991 H         -139.4906 eV
Extrapolated to 0:                  -5.1261870991 H         -139.4906 eV
Total Mermin free energy:           -5.1261870991 H         -139.4906 eV
Force related energy:               -5.1261870991 H         -139.4906 eV

SCC converged

Excitation Energy:                   0.1026752278 H            2.7939 eV

Total Forces
    1      0.003930507746     -0.006405045466      0.017010725567
    2      0.016167340903      0.016918639475     -0.014067859653
    3     -0.001618991455      0.005262701468      0.002393930538
    4     -0.004032394823     -0.017112739116     -0.000503467498
    5     -0.007989254729      0.004430345960      0.000308447191
    6     -0.006457207642     -0.003093902322     -0.005141776144

Maximal derivative component:        0.171127E-01 au


