|===============================================================================
|
|  DFTB+ release 20.1
|
|  Copyright (C) 2006 - 2020  DFTB+ developers group
|
|===============================================================================
|
|  When publishing results obtained with DFTB+, please cite the following
|  reference:
|
|  * DFTB+, a software package for efficient approximate density functional
|    theory based atomistic simulations, J. Chem. Phys. 152, 124101 (2020).
|    [doi: 10.1063/1.5143190]
|
|  You should also cite additional publications crediting the parametrization
|  data you use. Please consult the documentation of the SK-files for the
|  references.
|
|===============================================================================

Reading input file 'dftb_in.hsd'
Parser version: 8

--------------------------------------------------------------------------------
Reading SK-files:
Done.


Processed input in HSD format written to 'dftb_pin.hsd'

Starting initialization...
--------------------------------------------------------------------------------
WARNING!
-> Excited state forces are not implemented yet for fractional occupations, kT=  0.3158E-02K
OpenMP threads:              1
Chosen random seed:          433658501
Mode:                        Static calculation
Self consistent charges:     Yes
SCC-tolerance:                 0.100000E-05
Max. scc iterations:                    100
Shell resolved Hubbard:      No
Spin polarisation:           No
Nr. of up electrons:             6.000000
Nr. of down electrons:           6.000000
Periodic boundaries:         No
Electronic solver:           Relatively robust
Mixer:                       Broyden mixer
Mixing parameter:                  0.200000
Maximal SCC-cycles:                     100
Nr. of chrg. vec. in memory:              0
Electronic temperature:        0.100000E-07 H      0.272114E-06 eV
Initial charges:             Set automatically (system chrg:   0.100E+01)
Included shells:             C:  s, p
                             N:  s, p
                             H:  s
Extra options:
                             Mulliken analysis
                             Force calculation
Force type                   original
                             Eigenvector printing

--------------------------------------------------------------------------------

***  Geometry step: 0

 iSCC Total electronic   Diff electronic      SCC error    
    1   -0.52152334E+01    0.00000000E+00    0.11276982E+01
    2   -0.52456999E+01   -0.30466517E-01    0.68261460E+00
    3   -0.52556915E+01   -0.99916260E-02    0.31351197E+00
    4   -0.47921860E+01    0.46350553E+00    0.21441429E+01
    5   -0.52515011E+01   -0.45931512E+00    0.30216118E+00
    6   -0.52610406E+01   -0.95394717E-02    0.35430387E-01
    7   -0.52611543E+01   -0.11373708E-03    0.11098948E-01
    8   -0.52611696E+01   -0.15293598E-04    0.10087793E-02
    9   -0.52611698E+01   -0.19463755E-06    0.71260169E-04
   10   -0.52611698E+01   -0.88099483E-09    0.67478331E-04
   11   -0.52611698E+01   -0.15903723E-10    0.42795824E-04
   12   -0.52611698E+01   -0.17526958E-09    0.95897719E-05
   13   -0.52611698E+01   -0.80202511E-11    0.88915567E-06
>> Charges saved for restart in charges.bin

Total Energy:                       -5.0235118713 H         -136.6967 eV
Extrapolated to 0:                  -5.1261870991 H         -139.4906 eV
Total Mermin free energy:           -5.0235118713 H         -136.6967 eV
Force related energy:               -5.1261870991 H         -139.4906 eV

--------------------------------------------------------------------------------
DFTB+ running times                          cpu [s]             wall clock [s]
--------------------------------------------------------------------------------
SCC                                    +     0.02  ( 58.2%)      0.12  ( 84.4%)
Post-SCC processing                    +     0.01  ( 36.1%)      0.02  ( 12.8%)
--------------------------------------------------------------------------------
Missing                                +     0.00  (  5.7%)      0.00  (  2.8%)
Total                                  =     0.03  (100.0%)      0.14  (100.0%)
--------------------------------------------------------------------------------
