     6
  Step:   600            Position(A)                                  Velocity(au)
C        -0.12388244    -0.10220229     0.08621542    -0.00070591     0.00013886    -0.00030601
N        -0.01740610     0.02222623     1.27574045     0.00033090    -0.00040945    -0.00048845
H         0.80294963    -0.68037501    -0.87031775     0.00001162    -0.00206094     0.00229449
H        -0.31174988     0.59197718     1.99759041    -0.00156318    -0.00068114     0.00631410
H         0.76631946    -0.14324373     1.83665791    -0.00127200     0.00657957    -0.00322090
H        -0.75235774     0.47114033    -0.82785272     0.00663698     0.00019780     0.00504627
