     6
  Step:     0            Position(A)                                  Velocity(au)
C        -0.03214711     0.01530476     0.03941021    -0.00008695    -0.00006537     0.00029162
N        -0.04459545    -0.03997505     1.27856002    -0.00001533     0.00000426    -0.00014350
H         0.89966297    -0.03502705    -0.50429158     0.00045277     0.00040579    -0.00021676
H         0.79852290    -0.18337341     1.78153560     0.00047128    -0.00014500     0.00006616
H        -0.93296903    -0.12094667     1.91080078     0.00039639     0.00036216    -0.00092345
H        -0.97537369     0.04270326    -0.53293734    -0.00007130     0.00009685    -0.00040686
     6
  Step:     1            Position(A)                                  Velocity(au)
C        -0.03318303     0.01463809     0.04158905    -0.00010068    -0.00005661     0.00010104
N        -0.04502986    -0.03993728     1.27800131    -0.00005945     0.00000234     0.00004431
H         0.90584592    -0.03064205    -0.50798166     0.00064887     0.00039895    -0.00044034
H         0.80567220    -0.18544428     1.78389810     0.00079569    -0.00022774     0.00034072
H        -0.92669872    -0.11692158     1.89923991     0.00072153     0.00037077    -0.00116461
H        -0.97659537     0.04378375    -0.53824884    -0.00014022     0.00010004    -0.00055559
     6
  Step:     2            Position(A)                                  Velocity(au)
C        -0.03434970     0.01406638     0.04162062    -0.00011044    -0.00004826    -0.00009570
N        -0.04589603    -0.03992380     1.27952942    -0.00009204    -0.00000005     0.00023288
H         0.91385823    -0.02629931    -0.51392495     0.00078302     0.00039798    -0.00062571
H         0.81593015    -0.18835561     1.78898948     0.00102633    -0.00029612     0.00055629
H        -0.91718415    -0.11283545     1.88532271     0.00097087     0.00037201    -0.00134005
H        -0.97844134     0.04489191    -0.54509197    -0.00018513     0.00010194    -0.00068636
     6
  Step:     3            Position(A)                                  Velocity(au)
C        -0.03559911     0.01358242     0.03949534    -0.00011568    -0.00004077    -0.00028797
N        -0.04704349    -0.03993846     1.28309599    -0.00010911    -0.00000259     0.00041157
H         0.92297588    -0.02193557    -0.52167036     0.00085042     0.00040244    -0.00076914
H         0.82812522    -0.19192252     1.79606793     0.00114491    -0.00034646     0.00070109
H        -0.90545907    -0.10878309     1.86992367     0.00110554     0.00036330    -0.00142128
H        -0.98064540     0.04601382    -0.55326439    -0.00020623     0.00010263    -0.00079866
     6
  Step:     4            Position(A)                                  Velocity(au)
C        -0.03688036     0.01317440     0.03532072    -0.00011637    -0.00003453    -0.00046570
N        -0.04828298    -0.03998049     1.28853338    -0.00010770    -0.00000481     0.00057002
H         0.93246285    -0.01749506    -0.53075141     0.00085273     0.00041153    -0.00087098
H         0.84097733    -0.19593515     1.80432722     0.00114875    -0.00037776     0.00077432
H        -0.89299842    -0.10488754     1.85422951     0.00108693     0.00034232    -0.00138236
H        -0.98295311     0.04713705    -0.56256422    -0.00020521     0.00010227    -0.00089292
     6
  Step:     5            Position(A)                                  Velocity(au)
C        -0.03814484     0.01282711     0.02930729    -0.00011289    -0.00002975    -0.00062066
N        -0.04939954    -0.04004378     1.29556617    -0.00008635    -0.00000627     0.00069974
H         0.94163105    -0.01293261    -0.54072469     0.00079614     0.00042421    -0.00093447
H         0.85325637    -0.20018666     1.81300767     0.00104732    -0.00039121     0.00078358
H        -0.88168030    -0.10129429     1.83968201     0.00088628     0.00030771    -0.00120704
H        -0.98513468     0.04825107    -0.57279862    -0.00018463     0.00010103    -0.00097018
     6
  Step:     6            Position(A)                                  Velocity(au)
C        -0.03935007     0.01252348     0.02174265    -0.00010594    -0.00002656    -0.00074725
N        -0.05017195    -0.04011769     1.30384149    -0.00004582    -0.00000665     0.00079567
H         0.94987999    -0.00821460    -0.55119473     0.00068977     0.00043948    -0.00096463
H         0.86388949    -0.20449359     1.82146956     0.00085802    -0.00038960     0.00074170
H        -0.87360942    -0.09815583     1.82782320     0.00049882     0.00026002    -0.00089799
H        -0.98699235     0.04934720    -0.58378870    -0.00014757     0.00009904    -0.00103179
     6
  Step:     7            Position(A)                                  Velocity(au)
C        -0.04046240     0.01224598     0.01295974    -0.00009637    -0.00002494    -0.00084274
N        -0.05040188    -0.04018919     1.31297296     0.00001017    -0.00000584     0.00085691
H         0.95672113    -0.00331808    -0.56182778     0.00054427     0.00045646    -0.00096723
H         0.87202718    -0.20870997     1.82923374     0.00060274    -0.00037677     0.00066398
H        -0.87076756    -0.09560577     1.82003686    -0.00004287     0.00020236    -0.00048358
H        -0.98836302     0.05041784    -0.59537107    -0.00009714     0.00009636    -0.00107914
     6
  Step:     8            Position(A)                                  Velocity(au)
C        -0.04145825     0.01197791     0.00330613    -0.00008513    -0.00002476    -0.00090690
N        -0.04994949    -0.04024554     1.32258813     0.00007485    -0.00000398     0.00088645
H         0.96178701     0.00177140    -0.57235470     0.00037089     0.00047445    -0.00094809
H         0.87707554    -0.21273616     1.83599542     0.00030560    -0.00035723     0.00056640
H        -0.87454721    -0.09372879     1.81724406    -0.00066589     0.00014022    -0.00001666
H        -0.98911748     0.05145533    -0.60739685    -0.00003636     0.00009298    -0.00111343
     6
  Step:     9            Position(A)                                  Velocity(au)
C        -0.04232474     0.01170423    -0.00688053    -0.00007316    -0.00002587    -0.00094147
N        -0.04876439    -0.04027624     1.33236575     0.00013945    -0.00000126     0.00088977
H         0.96483513     0.00706145    -0.58256916     0.00018087     0.00049307    -0.00091268
H         0.87871282    -0.21652505     1.84162472    -0.00000787    -0.00033613     0.00046482
H        -0.88533520    -0.09253815     1.81967230    -0.00127110     0.00008023     0.00043738
H        -0.98915841     0.05245188    -0.61972945     0.00003196     0.00008870    -0.00113562
     6
  Step:    10            Position(A)                                  Velocity(au)
C        -0.04305875     0.01141194    -0.01729023    -0.00005743    -0.00002209    -0.00106554
N        -0.04689865    -0.04027317     1.34205358     0.00019480    -0.00000086     0.00096325
H         0.96574380     0.01255823    -0.59232139    -0.00009236     0.00056730    -0.00077169
H         0.87690340    -0.22008954     1.84616418    -0.00036502    -0.00038951     0.00033951
H        -0.90235498    -0.09197351     1.82681255    -0.00171716     0.00009387     0.00079161
H        -0.98841839     0.05339575    -0.63224079     0.00015188     0.00000353    -0.00104818
     6
  Step:    11            Position(A)                                  Velocity(au)
C        -0.04358120     0.01122091    -0.03019115    -0.00003823    -0.00001331    -0.00127821
N        -0.04450273    -0.04029495     1.35343864     0.00023374    -0.00000269     0.00110858
H         0.96281464     0.01947231    -0.59945130    -0.00043526     0.00067515    -0.00053546
H         0.87072725    -0.22504641     1.84905225    -0.00073115    -0.00049961     0.00020833
H        -0.92290133    -0.09048463     1.83699035    -0.00193883     0.00016212     0.00100992
H        -0.98583578     0.05252906    -0.64266041     0.00031261    -0.00014164    -0.00085695
     6
  Step:    12            Position(A)                                  Velocity(au)
C        -0.04389502     0.01112086    -0.04525351    -0.00001937    -0.00000556    -0.00145700
N        -0.04178515    -0.04033210     1.36630600     0.00025214    -0.00000321     0.00123113
H         0.95622173     0.02732841    -0.60403565    -0.00074899     0.00075126    -0.00031542
H         0.86090808    -0.23101937     1.85072187    -0.00101050    -0.00059306     0.00012721
H        -0.94477060    -0.08842676     1.84890647    -0.00196125     0.00020981     0.00111659
H        -0.98157947     0.05029707    -0.65098818     0.00044773    -0.00025719    -0.00067505
     6
  Step:    13            Position(A)                                  Velocity(au)
C        -0.04400495     0.01109939    -0.06206582    -0.00000126     0.00000106    -0.00159768
N        -0.03898672    -0.04036514     1.38037206     0.00024817    -0.00000153     0.00132713
H         0.94642912     0.03590752    -0.60635170    -0.00100700     0.00081196    -0.00012909
H         0.84862060    -0.23802067     1.85183518    -0.00116525    -0.00069709     0.00011507
H        -0.96580742    -0.08589471     1.86141796    -0.00179971     0.00025182     0.00112894
H        -0.97604073     0.04690264    -0.65742850     0.00053830    -0.00035804    -0.00051920
     6
  Step:    14            Position(A)                                  Velocity(au)
C        -0.04392252     0.01114398    -0.08020588     0.00001528     0.00000654    -0.00170050
N        -0.03635599    -0.04036549     1.39533948     0.00022206     0.00000313     0.00139642
H         0.93419166     0.04509164    -0.60685964    -0.00118186     0.00086484     0.00000700
H         0.83541598    -0.24626955     1.85323935    -0.00116755    -0.00082785     0.00018502
H        -0.98414269    -0.08291764     1.87360427    -0.00148627     0.00029162     0.00106886
H        -0.96980321     0.04246430    -0.66234659     0.00056775    -0.00045009    -0.00040281
     6
  Step:    15            Position(A)                                  Velocity(au)
C        -0.04367056     0.01124255    -0.09926750     0.00002902     0.00001092    -0.00176751
N        -0.03412878    -0.04029657     1.41092132     0.00017599     0.00001135     0.00144074
H         0.92057364     0.05482744    -0.60619851    -0.00124551     0.00091540     0.00007737
H         0.82307826    -0.25613154     1.85588281    -0.00100777    -0.00099568     0.00033993
H        -0.99832242    -0.07951506     1.88480133    -0.00106092     0.00032917     0.00095948
H        -0.96362022     0.03705611    -0.66624078     0.00052281    -0.00053674    -0.00033615
     6
  Step:    16            Position(A)                                  Velocity(au)
C        -0.04328770     0.01138286    -0.11887349     0.00003842     0.00001414    -0.00180165
N        -0.03250589    -0.04011710     1.42685835     0.00011434     0.00002327     0.00146318
H         0.90694365     0.06511780    -0.60516693    -0.00117310     0.00096879     0.00006978
H         0.81336917    -0.26805194     1.86067605    -0.00070368    -0.00120351     0.00056816
H        -1.00735236    -0.07571649     1.89459477    -0.00056594     0.00036341     0.00082263
H        -0.95836584     0.03072215    -0.66970054     0.00039597    -0.00062056    -0.00032499
     6
  Step:    17            Position(A)                                  Velocity(au)
C        -0.04283013     0.01155186    -0.13868210     0.00004202     0.00001612    -0.00180642
N        -0.03162728    -0.03978740     1.44293128     0.00004379     0.00003839     0.00146767
H         0.89490983     0.07602163    -0.60467189    -0.00094995     0.00102994    -0.00002135
H         0.80768390    -0.28246064     1.86831229    -0.00030411    -0.00144465     0.00084235
H        -1.01070347    -0.07156469     1.90279803    -0.00004372     0.00039306     0.00067809
H        -0.95495753     0.02348023    -0.67335066     0.00018856    -0.00070388    -0.00036910
     6
  Step:    18            Position(A)                                  Velocity(au)
C        -0.04236840     0.01173555    -0.15839237     0.00003901     0.00001681    -0.00178580
N        -0.03154794    -0.03927726     1.45896652    -0.00002723     0.00005551     0.00145822
H         0.88616160     0.08764973    -0.60563411    -0.00058052     0.00110277    -0.00019114
H         0.80671614    -0.29965643     1.87910415     0.00011794    -0.00170235     0.00112390
H        -1.00830871    -0.06711763     1.90942936     0.00046302     0.00041677     0.00054409
H        -0.95424068     0.01532341    -0.67777537    -0.00008682    -0.00078881    -0.00046120
     6
  Step:    19            Position(A)                                  Velocity(au)
C        -0.04197680     0.01191962    -0.17774983     0.00002978     0.00001627    -0.00174440
N        -0.03222302    -0.03857306     1.47483259    -0.00008964     0.00007295     0.00143818
H         0.88220992     0.10014681    -0.60885335    -0.00009553     0.00118870    -0.00042190
H         0.81026408    -0.31970286     1.89289967     0.00048242    -0.00195282     0.00137193
H        -1.00057393    -0.06244709     1.91470103     0.00090996     0.00043339     0.00043835
H        -0.95685686     0.00622351    -0.68344035    -0.00040599    -0.00087690    -0.00058753
     6
  Step:    20            Position(A)                                  Velocity(au)
C        -0.04171701     0.01209154    -0.19655452     0.00001619     0.00001480    -0.00168762
N        -0.03350898    -0.03768128     1.49042948    -0.00013522     0.00008896     0.00140990
H         0.88407181     0.11365482    -0.61486402     0.00044811     0.00128524    -0.00068486
H         0.81727000    -0.34237814     1.90911765     0.00072267    -0.00217109     0.00155345
H        -0.98840157    -0.05763650     1.91901905     0.00125107     0.00044199     0.00037855
H        -0.96312241    -0.00386044    -0.69062861    -0.00073577    -0.00096872    -0.00072991
     6
  Step:    21            Position(A)                                  Velocity(au)
C        -0.04162260     0.01224336    -0.21466976     0.00000117     0.00001292    -0.00162117
N        -0.03518111    -0.03662680     1.50567684    -0.00015783     0.00010213     0.00137459
H         0.89201316     0.12826383    -0.62383604     0.00097762     0.00138558    -0.00094612
H         0.82607393    -0.36719959     1.92688427     0.00079994    -0.00233722     0.00164985
H        -0.97320448    -0.05277777     1.92298264     0.00144126     0.00044201     0.00038155
H        -0.97295317    -0.01496899    -0.69940850    -0.00103942    -0.00106349    -0.00086917
     6
  Step:    22            Position(A)                                  Velocity(au)
C        -0.04169147     0.01237412    -0.23202074    -0.00001223     0.00001129    -0.00155016
N        -0.03696187    -0.03544697     1.52050120    -0.00015421     0.00011165     0.00133251
H         0.90545917     0.14396695    -0.63556230     0.00142196     0.00147987    -0.00117492
H         0.83477014    -0.39350938     1.94521136     0.00070652    -0.00244017     0.00165774
H        -0.95687132    -0.04796665     1.92736627     0.00144350     0.00043339     0.00046055
H        -0.98586178    -0.02712642    -0.70964327    -0.00128331    -0.00115907    -0.00098864
     6
  Step:    23            Position(A)                                  Velocity(au)
C        -0.04189018     0.01249026    -0.24858248    -0.00002174     0.00001051    -0.00147834
N        -0.03855467    -0.03418422     1.53482796    -0.00012429     0.00011736     0.00128357
H         0.92312134     0.16063877    -0.64953968     0.00172856     0.00155791    -0.00135017
H         0.84153034    -0.42058309     1.96315045     0.00045963    -0.00247825     0.00158531
H        -0.94162526    -0.04329648     1.93305815     0.00124041     0.00041666     0.00062041
H        -1.00102805    -0.04032591    -0.72103682    -0.00144233    -0.00125242    -0.00107666
     6
  Step:    24            Position(A)                                  Velocity(au)
C        -0.04216712     0.01260407    -0.26436227    -0.00002639     0.00001098    -0.00140785
N        -0.03968094    -0.03287948     1.54858185    -0.00007148     0.00011961     0.00122814
H         0.94327480     0.17804919    -0.66509977     0.00187196     0.00161166    -0.00146287
H         0.84482538    -0.44772590     1.97989310     0.00009139    -0.00245733     0.00144734
H        -0.92973503    -0.03885138     1.94093882     0.00084710     0.00039288     0.00085230
H        -1.01741554    -0.05452541    -0.73319718    -0.00150276    -0.00134020    -0.00112745
     6
  Step:    25            Position(A)                                  Velocity(au)
C        -0.04246746     0.01273051    -0.27938191    -0.00002636     0.00001280    -0.00133942
N        -0.04011833    -0.03156748     1.56169579    -0.00000243     0.00011911     0.00116749
H         0.96407399     0.19589695    -0.68154267     0.00185240     0.00163653    -0.00151444
H         0.84352975    -0.47434188     1.99481378    -0.00036026    -0.00238832     0.00126081
H        -0.92309332    -0.03470157     1.95170377     0.00031797     0.00036329     0.00113087
H        -1.03390387    -0.06964532    -0.74570197    -0.00146222    -0.00141926    -0.00114063
     6
  Step:    26            Position(A)                                  Velocity(au)
C        -0.04274388     0.01288415    -0.29366467    -0.00002257     0.00001584    -0.00127284
N        -0.03973405    -0.03027367     1.57412303     0.00007378     0.00011681     0.00110390
H         0.98379960     0.21385152    -0.69823110     0.00168788     0.00163146    -0.00151278
H         0.83694400    -0.49997497     2.00747569    -0.00085712    -0.00228519     0.00104256
H        -0.92277885    -0.03090367     1.96567884    -0.00025974     0.00032893     0.00141689
H        -1.04940440    -0.08557433    -0.75815068    -0.00132738    -0.00148711    -0.00111973
     6
  Step:    27            Position(A)                                  Velocity(au)
C        -0.04296124     0.01307693    -0.30722774    -0.00001613     0.00001979    -0.00120742
N        -0.03850416    -0.02901201     1.58584575     0.00014736     0.00011384     0.00103999
H         1.00099953     0.23158829    -0.71463753     0.00140505     0.00159803    -0.00146838
H         0.82477858    -0.52433479     2.01762168    -0.00136311    -0.00216398     0.00080846
H        -0.92877565    -0.02750551     1.98270093    -0.00078672     0.00029033     0.00166596
H        -1.06294289    -0.10217861    -0.77019812    -0.00111088    -0.00154217    -0.00107054
     6
  Step:    28            Position(A)                                  Velocity(au)
C        -0.04309666     0.01331710    -0.32007930    -0.00000804     0.00002433    -0.00114232
N        -0.03651017    -0.02778313     1.59687485     0.00020977     0.00011150     0.00097795
H         1.01453768     0.24881148    -0.73035479     0.00103248     0.00153943    -0.00139185
H         0.80712326    -0.54731625     2.02516239    -0.00184490    -0.00204262     0.00057354
H        -0.93998985    -0.02455208     2.00212483    -0.00117834     0.00024764     0.00184000
H        -1.07370710    -0.11931214    -0.78157070    -0.00082855    -0.00158378    -0.00099983
     6
  Step:    29            Position(A)                                  Velocity(au)
C        -0.04313712     0.01360911    -0.33221811     0.00000089     0.00002911    -0.00107670
N        -0.03391494    -0.02657264     1.60724033     0.00025514     0.00011123     0.00091888
H         1.02358707     0.26526619    -0.74508693     0.00059720     0.00145969    -0.00129268
H         0.78441778    -0.56902112     2.03016891    -0.00227185    -0.00194110     0.00035225
H        -0.95455399    -0.02208788     2.02295446    -0.00138405     0.00020104     0.00191578
H        -1.08106910    -0.13682678    -0.79207129    -0.00049744    -0.00161220    -0.00091449
     6
  Step:    30            Position(A)                                  Velocity(au)
C        -0.04307709     0.01395396    -0.34363422     0.00001009     0.00003386    -0.00100983
N        -0.03092857    -0.02534972     1.61697713     0.00028064     0.00011455     0.00086265
H         1.02760261     0.28074506    -0.75863454     0.00012347     0.00136323    -0.00117899
H         0.75742224    -0.58978152     2.03286844    -0.00261684    -0.00188114     0.00015829
H        -0.97026861    -0.02015387     2.04403618    -0.00139209     0.00015118     0.00188719
H        -1.08458962    -0.15458219    -0.80157686    -0.00013463    -0.00162851    -0.00082108
     6
  Step:    31            Position(A)                                  Velocity(au)
C        -0.04291634     0.01434979    -0.35430999     0.00001912     0.00003833    -0.00094101
N        -0.02777549    -0.02406663     1.62611239     0.00028612     0.00012293     0.00080821
H         1.02628830     0.29508941    -0.77087956    -0.00036680     0.00125473    -0.00105787
H         0.72716947    -0.61017459     2.03363171    -0.00285877    -0.00188472     0.00000343
H        -0.98500862    -0.01878052     2.06424044    -0.00122148     0.00009944     0.00176201
H        -1.08401437    -0.17245350    -0.81003406     0.00024315    -0.00163448    -0.00072576
     6
  Step:    32            Position(A)                                  Velocity(au)
C        -0.04265880     0.01479255    -0.36422056     0.00002761     0.00004236    -0.00086959
N        -0.02466911    -0.02266037     1.63465830     0.00027347     0.00013752     0.00075420
H         1.01957825     0.30819478    -0.78177754    -0.00085301     0.00113943    -0.00093590
H         0.69488117    -0.63101333     2.03294355    -0.00298664    -0.00197036    -0.00010473
H        -0.99699087    -0.01797848     2.08258352    -0.00090916     0.00004794     0.00155628
H        -1.07927018    -0.19033957    -0.81745417     0.00061956    -0.00163272    -0.00063428
     6
  Step:    33            Position(A)                                  Velocity(au)
C        -0.04231238     0.01527642    -0.37333392     0.00003516     0.00004578    -0.00079490
N        -0.02179276    -0.02105813     1.64261195     0.00024612     0.00015873     0.00069948
H         1.00762707     0.32001664    -0.79135421    -0.00131492     0.00102321    -0.00081961
H         0.66183090    -0.65327993     2.03134044    -0.00300419    -0.00214716    -0.00016585
H        -1.00489813    -0.01773166     2.09828694    -0.00049873    -0.00000059     0.00128939
H        -1.07046030    -0.20817235    -0.82391010     0.00097861    -0.00162668    -0.00055220
     6
  Step:    34            Position(A)                                  Velocity(au)
C        -0.04188953     0.01579409    -0.38161050     0.00004131     0.00004848    -0.00071620
N        -0.01928470    -0.01918791     1.64996082     0.00020879     0.00018576     0.00064356
H         0.99081192     0.33057949    -0.79970802    -0.00173167     0.00091295    -0.00071598
H         0.62915876    -0.67798649     2.02931521    -0.00293270    -0.00240816    -0.00018914
H        -1.00790158    -0.01799150     2.11079132    -0.00003395    -0.00004303     0.00098113
H        -1.05786130    -0.22592636    -0.82953458     0.00130461    -0.00162073    -0.00048493
     6
  Step:    35            Position(A)                                  Velocity(au)
C        -0.04140854     0.01633691    -0.38900218     0.00004543     0.00005030    -0.00063265
N        -0.01722513    -0.01699431     1.65669103     0.00016714     0.00021631     0.00058662
H         0.96974343     0.33998925    -0.80701773    -0.00208099     0.00081689    -0.00063300
H         0.59767248    -0.70596312     2.02720270    -0.00280895    -0.00272615    -0.00019332
H        -1.00564088    -0.01867297     2.11975108     0.00044355    -0.00007594     0.00065072
H        -1.04191936    -0.24362895    -0.83451884     0.00158235    -0.00162018    -0.00043776
     6
  Step:    36            Position(A)                                  Velocity(au)
C        -0.04089566     0.01689458    -0.39545087     0.00004668     0.00005109    -0.00054328
N        -0.01562810    -0.01445560     1.66279434     0.00012727     0.00024675     0.00052928
H         0.94528630     0.34845043    -0.81355612    -0.00233918     0.00074477    -0.00057982
H         0.56770762    -0.73762631     2.02508596    -0.00267708    -0.00305547    -0.00020296
H        -0.99819811    -0.01965280     2.12502703     0.00089378    -0.00009587     0.00031706
H        -1.02324439    -0.26137079    -0.83911137     0.00179764    -0.00163118    -0.00041566
     6
  Step:    37            Position(A)                                  Velocity(au)
C        -0.04038729     0.01745467    -0.40088757     0.00004408     0.00005062    -0.00044713
N        -0.01444089    -0.01159614     1.66827010     0.00009490     0.00027275     0.00047203
H         0.91856949     0.35628254    -0.81970230    -0.00248276     0.00070757    -0.00056636
H         0.53910626    -0.77280734     2.02276267    -0.00257703    -0.00334103    -0.00024201
H        -0.98608764    -0.02077038     2.12668733     0.00127700    -0.00009961    -0.00000047
H        -1.00259257    -0.27931413    -0.84361225     0.00193872    -0.00166040    -0.00042278
     6
  Step:    38            Position(A)                                  Velocity(au)
C        -0.03993127     0.01800206    -0.40523262     0.00003663     0.00004865    -0.00034334
N        -0.01355197    -0.00848861     1.67312094     0.00007476     0.00029031     0.00041477
H         0.89097112     0.36392980    -0.82594633    -0.00249214     0.00071637    -0.00060206
H         0.51133010    -0.81071784     2.01979155    -0.00253458    -0.00353159    -0.00032736
H        -0.97026124    -0.02183187     2.12501665     0.00155307    -0.00008440    -0.00028168
H        -0.98083109    -0.29769515    -0.84836041     0.00199823    -0.00171432    -0.00046154
     6
  Step:    39            Position(A)                                  Velocity(au)
C        -0.03958589     0.01851906    -0.40839878     0.00002364     0.00004503    -0.00023158
N        -0.01280534    -0.00524511     1.67734400     0.00007013     0.00029656     0.00035661
H         0.86404918     0.37195450    -0.83287345    -0.00235773     0.00077995    -0.00069310
H         0.48365753    -0.85006757     2.01560106    -0.00255725    -0.00359126    -0.00046526
H        -0.95211131    -0.02261682     2.12052515     0.00168316    -0.00004817    -0.00050627
H        -0.95887745    -0.31681822    -0.85370922     0.00197551    -0.00179813    -0.00053152
     6
  Step:    40            Position(A)                                  Velocity(au)
C        -0.03941402     0.01898708    -0.41029889     0.00000520     0.00003984    -0.00011244
N        -0.01201772    -0.00200078     1.68092249     0.00008263     0.00029019     0.00029611
H         0.83939129     0.38099274    -0.84110917    -0.00208727     0.00090119    -0.00083858
H         0.45538541    -0.88928359     2.00961319    -0.00263677    -0.00350494    -0.00065170
H        -0.93343893    -0.02288572     2.11394095     0.00163517     0.00001065    -0.00065648
H        -0.93761296    -0.33703263    -0.85998847     0.00187868    -0.00191420    -0.00062824
     6
  Step:    41            Position(A)                                  Velocity(au)
C        -0.03947224     0.01939064    -0.41085868    -0.00001754     0.00003363     0.00001215
N        -0.01099761     0.00110336     1.68382188     0.00011199     0.00027125     0.00023178
H         0.81838625     0.39166974    -0.85121904    -0.00171058     0.00107377    -0.00102695
H         0.42597305    -0.92674486     2.00134393    -0.00275515    -0.00327678    -0.00087542
H        -0.91633884    -0.02238379     2.10616342     0.00139303     0.00009369    -0.00072129
H        -0.91777776    -0.35869490    -0.86745317     0.00172548    -0.00206080    -0.00074214
     6
  Step:    42            Position(A)                                  Velocity(au)
C        -0.03979777     0.01972281    -0.41003309    -0.00004231     0.00002743     0.00013880
N        -0.00956774     0.00393339     1.68599318     0.00015567     0.00024069     0.00016277
H         0.80196909     0.40448346    -0.86357567    -0.00127797     0.00128085    -0.00123469
H         0.39511117    -0.96096949     1.99046167    -0.00289085    -0.00292462    -0.00112160
H        -0.90296369    -0.02083615     2.09816136     0.00096775     0.00020357    -0.00070132
H        -0.89986473    -0.38211660    -0.87622416     0.00154194    -0.00223137    -0.00085846
     6
  Step:    43            Position(A)                                  Velocity(au)
C        -0.04039785     0.01999068    -0.40782206    -0.00006624     0.00002263     0.00026296
N        -0.00759193     0.00636898     1.68738289     0.00020864     0.00019978     0.00008922
H         0.79042820     0.41969080    -0.87823025    -0.00085047     0.00149750    -0.00142908
H         0.36273016    -0.99072641     1.97680676    -0.00302295    -0.00247340    -0.00137463
H        -0.89516755    -0.01793033     2.09082074     0.00040509     0.00034504    -0.00061149
H        -0.88404497    -0.40751028    -0.88623366     0.00135836    -0.00241493    -0.00095822
     6
  Step:    44            Position(A)                                  Velocity(au)
C        -0.04124687     0.02021792    -0.40428035    -0.00008658     0.00002069     0.00037956
N        -0.00500345     0.00830386     1.68794514     0.00026352     0.00014963     0.00001219
H         0.78336347     0.43724413    -0.89483963    -0.00048515     0.00169653    -0.00157457
H         0.32897831    -1.01507994     1.96038903    -0.00313249    -0.00195024    -0.00161930
H        -0.89410146    -0.01328775     2.08478391    -0.00021659     0.00052560    -0.00047850
H        -0.87014806    -0.43494789    -0.89718703     0.00120392    -0.00259782    -0.00101995
     6