     6
  Step:     0            Position(A)                                  Velocity(au)
C        -0.03597327     0.01126535     0.01349356     0.00016387    -0.00014021    -0.00040257
N        -0.03182358    -0.04808947     1.30310689    -0.00006978     0.00007875     0.00040257
H         0.89743103     0.00788473    -0.53898276    -0.00095524     0.00072996     0.00036245
H         0.78422874    -0.13731647     1.83866120     0.00004632    -0.00046075    -0.00066791
H        -1.02484532    -0.05045629     1.81942416     0.00039121    -0.00008377    -0.00070919
H        -0.99886151     0.04413939    -0.49628325    -0.00046541     0.00039097     0.00021748
     6
  Step:     1            Position(A)                                  Velocity(au)
C        -0.03508156     0.01053078     0.01094079     0.00016072    -0.00012889    -0.00052828
N        -0.03231103    -0.04765395     1.30560928    -0.00010820     0.00008031     0.00050999
H         0.89236947     0.01177867    -0.53708214    -0.00088444     0.00069584     0.00032493
H         0.78518212    -0.14001449     1.83547473     0.00030499    -0.00052351    -0.00049294
H        -1.02195323    -0.05100400     1.81525969     0.00066059    -0.00011468    -0.00080775
H        -1.00149792     0.04619220    -0.49518785    -0.00049291     0.00036224     0.00018390
     6
  Step:     2            Position(A)                                  Velocity(au)
C        -0.03421461     0.00985497     0.00771294     0.00015456    -0.00011852    -0.00064736
N        -0.03300748    -0.04721070     1.30868730    -0.00014539     0.00008141     0.00061132
H         0.88775321     0.01549884    -0.53542731    -0.00079052     0.00066521     0.00027208
H         0.78756602    -0.14304491     1.83326728     0.00056396    -0.00058075    -0.00031249
H        -1.01761693    -0.05171119     1.81058554     0.00091438    -0.00014182    -0.00089240
H        -1.00425506     0.04810310    -0.49427101    -0.00050923     0.00033828     0.00015181
     6
  Step:     3            Position(A)                                  Velocity(au)
C        -0.03338873     0.00923268     0.00385029     0.00014533    -0.00010898    -0.00075715
N        -0.03390347    -0.04676225     1.31230495    -0.00017997     0.00008197     0.00070445
H         0.88371098     0.01906459    -0.53410209    -0.00067266     0.00063728     0.00020417
H         0.79135906    -0.14637538     1.83205202     0.00081281    -0.00063094    -0.00013319
H        -1.01193812    -0.05255735     1.80548537     0.00114403    -0.00016517    -0.00095890
H        -1.00707550     0.04989736    -0.49352513    -0.00051520     0.00031830     0.00012091
     6
  Step:     4            Position(A)                                  Velocity(au)
C        -0.03262032     0.00865947    -0.00059290     0.00013312    -0.00010013    -0.00085485
N        -0.03498170    -0.04631146     1.31641504    -0.00021038     0.00008193     0.00078711
H         0.88037427     0.02248973    -0.53318760    -0.00053138     0.00061095     0.00012228
H         0.79648238    -0.14996621     1.83180615     0.00104039    -0.00067260     0.00003811
H        -1.00506712    -0.05352313     1.80006654     0.00133983    -0.00018499    -0.00100273
H        -1.00990676     0.05159480    -0.49294468    -0.00051168     0.00030125     0.00009083
     6
  Step:     5            Position(A)                                  Velocity(au)
C        -0.03192527     0.00813184    -0.00554794     0.00011811    -0.00009182    -0.00093779
N        -0.03621635    -0.04586149     1.32095846    -0.00023504     0.00008123     0.00085704
H         0.87786896     0.02578140    -0.53275777    -0.00036907     0.00058507     0.00002842
H         0.80279709    -0.15376997     1.83247105     0.00123571    -0.00070427     0.00019489
H        -0.99720808    -0.05459117     1.79446136     0.00149163    -0.00020162    -0.00101948
H        -1.01270087     0.05320924    -0.49252653    -0.00049954     0.00028610     0.00006120
     6
  Step:     6            Position(A)                                  Velocity(au)
C        -0.03131816     0.00764717    -0.01093236     0.00010070    -0.00008392    -0.00100370
N        -0.03757310    -0.04541587     1.32586423    -0.00025250     0.00007982     0.00091224
H         0.87630514     0.02894040    -0.53287425    -0.00019007     0.00055869    -0.00007443
H         0.81010656    -0.15773105     1.83395485     0.00138909    -0.00072459     0.00033143
H        -0.98862134    -0.05574611     1.78882645     0.00158954    -0.00021542    -0.00100525
H        -1.01541438     0.05474920    -0.49226993    -0.00047980     0.00027205     0.00003168
     6
  Step:     7            Position(A)                                  Velocity(au)
C        -0.03081121     0.00720345    -0.01665231     0.00008149    -0.00007636    -0.00105117
N        -0.03900984    -0.04497841     1.33105092    -0.00026163     0.00007769     0.00095135
H         0.87576615     0.03196241    -0.53358120    -0.00000059     0.00053118    -0.00018246
H         0.81816521    -0.16178638     1.83613775     0.00149348    -0.00073264     0.00044346
H        -0.97962236    -0.05697450     1.78333986     0.00162547    -0.00022679    -0.00095751
H        -1.01800914     0.05621906    -0.49217609    -0.00045374     0.00025853     0.00000202
     6
  Step:     8            Position(A)                                  Velocity(au)
C        -0.03041314     0.00679909    -0.02260708     0.00006124    -0.00006913    -0.00107999
N        -0.04047890    -0.04455301     1.33643033    -0.00026190     0.00007488     0.00097405
H         0.87629862     0.03483992    -0.53490074     0.00019190     0.00050236    -0.00029136
H         0.82669382    -0.16586804     1.83888009     0.00154557    -0.00072827     0.00052864
H        -0.97056811    -0.05826493     1.77819193     0.00159511    -0.00023620    -0.00087590
H        -1.02045378     0.05762055    -0.49224749    -0.00042293     0.00024528    -0.00002789
     6
  Step:     9            Position(A)                                  Velocity(au)
C        -0.03012833     0.00643254    -0.02869572     0.00004080    -0.00006227    -0.00109146
N        -0.04193039    -0.04414336     1.34191296    -0.00025345     0.00007152     0.00098130
H         0.87790607     0.03756447    -0.53683029     0.00037960     0.00047251    -0.00039681
H         0.83540053    -0.16990765     1.84203278     0.00154647    -0.00071236     0.00058685
H        -0.96183460    -0.05960844     1.77357232     0.00149883    -0.00024427    -0.00076252
H        -1.02272538     0.05895430    -0.49248707    -0.00038924     0.00023234    -0.00005807
     6
  Step:    10            Position(A)                                  Velocity(au)
C        -0.02995638     0.00610202    -0.03482475     0.00003409    -0.00009060    -0.00176527
N        -0.04331594    -0.04375246     1.34741485    -0.00038454     0.00010994     0.00158199
H         0.88054781     0.04012909    -0.53934251     0.00090116     0.00071732    -0.00080294
H         0.84400479    -0.17384205     1.84544922     0.00243521    -0.00111386     0.00100588
H        -0.95379043    -0.06099929     1.76965644     0.00217627    -0.00040841    -0.00100817
H        -1.02481093     0.06022132    -0.49289750    -0.00057527     0.00035680    -0.00014357
     6
  Step:    11            Position(A)                                  Velocity(au)
C        -0.02980319     0.00559525    -0.04434767     0.00002098    -0.00008802    -0.00158675
N        -0.04540265    -0.04314507     1.35599369    -0.00034577     0.00010390     0.00143646
H         0.88624396     0.04413885    -0.54443714     0.00108862     0.00069504    -0.00097839
H         0.85741023    -0.17999222     1.85113318     0.00225965    -0.00104842     0.00097981
H        -0.94224897    -0.06323690     1.76452577     0.00185080    -0.00038094    -0.00078218
H        -1.02828248     0.06219756    -0.49409494    -0.00064429     0.00033928    -0.00027293
     6
  Step:    12            Position(A)                                  Velocity(au)
C        -0.02971774     0.00510099    -0.05287111     0.00001025    -0.00008561    -0.00140673
N        -0.04724844    -0.04257077     1.36375191    -0.00029885     0.00009773     0.00128680
H         0.89292886     0.04803387    -0.55046989     0.00123927     0.00067269    -0.00112520
H         0.86970420    -0.18576597     1.85659280     0.00203719    -0.00097624     0.00092477
H        -0.93274091    -0.06533181     1.76076054     0.00145896    -0.00035620    -0.00052866
H        -1.03213854     0.06408002    -0.49600155    -0.00070477     0.00032175    -0.00039008
     6
  Step:    13            Position(A)                                  Velocity(au)
C        -0.02968625     0.00461879    -0.06039361     0.00000204    -0.00008405    -0.00124144
N        -0.04881152    -0.04203033     1.37067168    -0.00024856     0.00009239     0.00114772
H         0.90037976     0.05181188    -0.55727176     0.00136147     0.00065626    -0.00125270
H         0.88064755    -0.19112771     1.86168159     0.00179785    -0.00090802     0.00085612
H        -0.92560721    -0.06729988     1.75849560     0.00103097    -0.00033769    -0.00026170
H        -1.03632144     0.06586765    -0.49854437    -0.00076064     0.00030708    -0.00049774
     6
  Step:    14            Position(A)                                  Velocity(au)
C        -0.02969456     0.00414437    -0.06700114    -0.00000385    -0.00008358    -0.00109579
N        -0.05007751    -0.04151920     1.37681521    -0.00019728     0.00008824     0.00102405
H         0.90842504     0.05550337    -0.56472800     0.00146130     0.00064795    -0.00136781
H         0.89016725    -0.19610106     1.86633710     0.00155550    -0.00084804     0.00078226
H        -0.92100649    -0.06917533     1.75778187     0.00058425    -0.00032641     0.00001163
H        -1.04079611     0.06757522    -0.50166675    -0.00081378     0.00029622    -0.00059915
     6
  Step:    15            Position(A)                                  Velocity(au)
C        -0.02972991     0.00367211    -0.07280523    -0.00000769    -0.00008405    -0.00096737
N        -0.05104601    -0.04103087     1.38227076    -0.00014593     0.00008515     0.00091408
H         0.91693135     0.05915093    -0.57276452     0.00153927     0.00064671    -0.00147202
H         0.89826619    -0.20073314     1.87054192     0.00131248    -0.00079561     0.00070585
H        -0.91898966    -0.07099697     1.75862734     0.00013045    -0.00032144     0.00028662
H        -1.04553881     0.06922278    -0.50533069    -0.00086275     0.00028856    -0.00069559
     6
  Step:    16            Position(A)                                  Velocity(au)
C        -0.02978127     0.00319715    -0.07790323    -0.00000974    -0.00008514    -0.00085180
N        -0.05172209    -0.04055955     1.38711675    -0.00009519     0.00008281     0.00081427
H         0.92577233     0.06279174    -0.58131739     0.00159258     0.00065020    -0.00156316
H         0.90495867    -0.20506743     1.87429191     0.00106747    -0.00074833     0.00062722
H        -0.91953639    -0.07279786     1.76101204    -0.00031719    -0.00032102     0.00055714
H        -1.05051914     0.07082729    -0.50950598    -0.00090419     0.00028298    -0.00078645
     6
  Step:    17            Position(A)                                  Velocity(au)
C        -0.02983922     0.00271626    -0.08236775    -0.00001023    -0.00008656    -0.00074550
N        -0.05211460    -0.04010123     1.39141194    -0.00004604     0.00008090     0.00072179
H         0.93481009     0.06645029    -0.59031290     0.00161827     0.00065611    -0.00163830
H         0.91024992    -0.20913409     1.87758323     0.00082002    -0.00070407     0.00054653
H        -0.92255049    -0.07460083     1.76488192    -0.00074215    -0.00032330     0.00081521
H        -1.05568951     0.07239960    -0.51415963    -0.00093457     0.00027841    -0.00087030
     6
  Step:    18            Position(A)                                  Velocity(au)
C        -0.02989584     0.00222789    -0.08625114    -0.00000943    -0.00008806    -0.00064617
N        -0.05223761    -0.03965359     1.39519921     0.00000028     0.00007921     0.00063498
H         0.94389340     0.07013869    -0.59966273     0.00161473     0.00066264    -0.00169522
H         0.91414111    -0.21295149     1.88041189     0.00057149    -0.00066152     0.00046451
H        -0.92784682    -0.07641813     1.77014056    -0.00112684    -0.00032660     0.00105228
H        -1.06098420     0.07394487    -0.51925138    -0.00095104     0.00027408    -0.00094568
     6
  Step:    19            Position(A)                                  Velocity(au)
C        -0.02994468     0.00173167    -0.08959281    -0.00000760    -0.00008948    -0.00055252
N        -0.05211142    -0.03921560     1.39851190     0.00004252     0.00007755     0.00055303
H         0.95286498     0.07385955    -0.60926776     0.00158201     0.00066857    -0.00173277
H         0.91664000    -0.21653075     1.88277713     0.00032467    -0.00062007     0.00038237
H        -0.93515011    -0.07825266     1.77664788    -0.00145534    -0.00032949     0.00126061
H        -1.06632342     0.07546418    -0.52473366    -0.00095177     0.00026949    -0.00101149
     6
  Step:    20            Position(A)                                  Velocity(au)
C        -0.02998077     0.00122813    -0.09242464    -0.00000501    -0.00009071    -0.00046385
N        -0.05176249    -0.03878707     1.40137846     0.00007960     0.00007584     0.00047562
H         0.96156975     0.07760883    -0.61902362     0.00152155     0.00067306    -0.00175082
H         0.91776880    -0.21987972     1.88468430     0.00008310    -0.00057962     0.00030162
H        -0.94410785    -0.08009960     1.78422582    -0.00171543    -0.00033082     0.00143414
H        -1.07161869     0.07695594    -0.53055318    -0.00093586     0.00026434    -0.00106701
     6
  Step:    21            Position(A)                                  Velocity(au)
C        -0.03000060     0.00071834    -0.09477450    -0.00000191    -0.00009170    -0.00037983
N        -0.05122218    -0.03836835     1.40382504     0.00011075     0.00007403     0.00040264
H         0.96986224     0.08137832    -0.62882608     0.00143594     0.00067566    -0.00175008
H         0.91756837    -0.22300570     1.88614650    -0.00014939    -0.00054041     0.00022386
H        -0.95431312    -0.08194821     1.79266858    -0.00189975    -0.00032976     0.00156903
H        -1.07677787     0.07841707    -0.53665316    -0.00090326     0.00025848    -0.00111191
     6
  Step:    22            Position(A)                                  Velocity(au)
C        -0.03000205     0.00020367    -0.09666814     0.00000147    -0.00009242    -0.00030030
N        -0.05052514    -0.03796003     1.40587677     0.00013555     0.00007209     0.00033406
H         0.97761206     0.08515737    -0.63857551     0.00132846     0.00067618    -0.00173195
H         0.91609980    -0.22591723     1.88718526    -0.00036908    -0.00050288     0.00015070
H        -0.96533187    -0.08378364     1.80175505    -0.00200600    -0.00032579     0.00166379
H        -1.08170989     0.07984374    -0.54297550    -0.00085466     0.00025191    -0.00114630
     6
  Step:    23            Position(A)                                  Velocity(au)
C        -0.02998421    -0.00031439    -0.09813034     0.00000491    -0.00009286    -0.00022519
N        -0.04970739    -0.03756273     1.40755811     0.00015393     0.00007006     0.00026982
H         0.98470755     0.08893446    -0.64818032     0.00120276     0.00067461    -0.00169827
H         0.91344396    -0.22862530     1.88783055    -0.00057255    -0.00046759     0.00008364
H        -0.97672975    -0.08558879     1.81126117    -0.00203655    -0.00031869     0.00171912
H        -1.08632857     0.08123206    -0.54946286    -0.00079130     0.00024465    -0.00117058
     6
  Step:    24            Position(A)                                  Velocity(au)
C        -0.02994714    -0.00083438    -0.09918534     0.00000828    -0.00009307    -0.00015443
N        -0.04880454    -0.03717688     1.40889281     0.00016609     0.00006799     0.00020978
H         0.99105652     0.09269820    -0.65755889     0.00106246     0.00067113    -0.00165112
H         0.90969977    -0.23114399     1.88812022    -0.00075689    -0.00043517     0.00002402
H        -0.98809649    -0.08734595     1.82097150    -0.00199752    -0.00030851     0.00173753
H        -1.09055505     0.08257841    -0.55606030    -0.00071473     0.00023681    -0.00118542
     6
  Step:    25            Position(A)                                  Velocity(au)
C        -0.02989168    -0.00135497    -0.09985694     0.00001144    -0.00009307    -0.00008791
N        -0.04785043    -0.03680260     1.40990359     0.00017245     0.00006593     0.00015372
H         0.99658659     0.09643823    -0.66664106     0.00091107     0.00066602    -0.00159269
H         0.90498141    -0.23349082     1.88809916    -0.00091973    -0.00040625    -0.00002701
H        -0.99906350    -0.08903817     1.83068800    -0.00189739    -0.00029549     0.00172273
H        -1.09431978     0.08387976    -0.56271677    -0.00062676     0.00022852    -0.00119171
     6
  Step:    26            Position(A)                                  Velocity(au)
C        -0.02981921    -0.00187508    -0.10016831     0.00001433    -0.00009291    -0.00002547
N        -0.04687621    -0.03643963     1.41061178     0.00017354     0.00006397     0.00010136
H         1.00124424     0.10014578    -0.67536863     0.00075179     0.00065961    -0.00152515
H         0.89941525    -0.23568675     1.88781821    -0.00105928    -0.00038144    -0.00006852
H        -1.00931336    -0.09065014     1.84023528    -0.00174566    -0.00027996     0.00167904
H        -1.09756357     0.08513380    -0.56938620    -0.00052925     0.00021993    -0.00119043
     6
  Step:    27            Position(A)                                  Velocity(au)
C        -0.02973147    -0.00239385    -0.10014172     0.00001689    -0.00009263     0.00003311
N        -0.04590991    -0.03608731     1.41103700     0.00016994     0.00006217     0.00005234
H         1.00499307     0.10381394    -0.68369513     0.00058740     0.00065225    -0.00145048
H         0.89313667    -0.23775599     1.88733299    -0.00117422    -0.00036127    -0.00009975
H        -1.01858325    -0.09216862     1.84946290    -0.00155206    -0.00026231     0.00161101
H        -1.10023785     0.08633900    -0.57602800    -0.00042403     0.00021117    -0.00118257
     6
  Step:    28            Position(A)                                  Velocity(au)
C        -0.02963040    -0.00291071    -0.09979817     0.00001910    -0.00009229     0.00008809
N        -0.04497627    -0.03574453     1.41119690     0.00016224     0.00006062     0.00000625
H         1.00781124     0.10743778    -0.69158480     0.00042016     0.00064424    -0.00137042
H         0.88628770    -0.23972574     1.88670302    -0.00126359    -0.00034625    -0.00012010
H        -1.02666516    -0.09358272     1.85824613    -0.00132607    -0.00024296     0.00152311
H        -1.10230414     0.08749459    -0.58260718    -0.00031276     0.00020234    -0.00116910
     6
  Step:    29            Position(A)                                  Velocity(au)
C        -0.02951797    -0.00342532    -0.09915727     0.00002097    -0.00009192     0.00013975
N        -0.04409669    -0.03540982     1.41110689     0.00015099     0.00005936    -0.00003730
H         1.00968884     0.11101409    -0.69901107     0.00025193     0.00063589    -0.00128640
H         0.87901466    -0.24162576     1.88599077    -0.00132684    -0.00033677    -0.00012914
H        -1.03340355    -0.09488392     1.86648531    -0.00107623    -0.00022227     0.00141943
H        -1.10373332     0.08860040    -0.58909403    -0.00019698     0.00019356    -0.00115087
     6
  Step:    30            Position(A)                                  Velocity(au)
C        -0.02939611    -0.00393757    -0.09823701     0.00002251    -0.00009155     0.00018840
N        -0.04328961    -0.03508138     1.41078025     0.00013667     0.00005846    -0.00007870
H         1.01062554     0.11454124    -0.70595508     0.00008416     0.00062739    -0.00119957
H         0.87146556    -0.24348781     1.88526044    -0.00136385    -0.00033311    -0.00012667
H        -1.03868770    -0.09606568     1.87410255    -0.00080979    -0.00020056     0.00130349
H        -1.10450461     0.08965680    -0.59546354    -0.00007803     0.00018488    -0.00112860
     6
  Step:    31            Position(A)                                  Velocity(au)
C        -0.02926664    -0.00444749    -0.09705383     0.00002374    -0.00009121     0.00023429
N        -0.04257079    -0.03475715     1.41022827     0.00011975     0.00005793    -0.00011828
H         1.01062850     0.11801879    -0.71240407    -0.00008199     0.00061892    -0.00111083
H         0.86378745    -0.24534485     1.88457651    -0.00137497    -0.00033539    -0.00011277
H        -1.04244473    -0.09712315     1.88103856    -0.00053297    -0.00017809     0.00117830
H        -1.10460455     0.09066453    -0.60169471     0.00004288     0.00017635    -0.00110289
     6
  Step:    32            Position(A)                                  Velocity(au)
C        -0.02913121    -0.00495525    -0.09562271     0.00002469    -0.00009089     0.00027768
N        -0.04195343    -0.03443498     1.40946047     0.00010066     0.00005780    -0.00015633
H         1.00971071     0.12144720    -0.71834991    -0.00024557     0.00061057    -0.00102087
H         0.85612350    -0.24723017     1.88400213    -0.00136101    -0.00034360    -0.00008780
H        -1.04463469    -0.09805286     1.88725013    -0.00025123    -0.00015508     0.00104647
H        -1.10402613     0.09162457    -0.60776973     0.00016468     0.00016801    -0.00107419
     6
  Step:    33            Position(A)                                  Velocity(au)
C        -0.02899130    -0.00546109    -0.09395735     0.00002539    -0.00009063     0.00031874
N        -0.04144826    -0.03411261     1.40848497     0.00007984     0.00005806    -0.00019306
H         1.00789004     0.12482752    -0.72378809    -0.00040574     0.00060242    -0.00093019
H         0.84861031    -0.24917647     1.88359744    -0.00132331    -0.00035754    -0.00005242
H        -1.04524634    -0.09885253     1.89270808     0.00003063    -0.00013172     0.00091029
H        -1.10276815     0.09253805    -0.61367335     0.00028634     0.00015986    -0.00104285
     6
  Step:    34            Position(A)                                  Velocity(au)
C        -0.02884823    -0.00596527    -0.09207043     0.00002587    -0.00009040     0.00035760
N        -0.04106363    -0.03378786     1.40730880     0.00005771     0.00005870    -0.00022862
H         1.00518873     0.12816115    -0.72871686    -0.00056169     0.00059448    -0.00083924
H         0.84137526    -0.25121489     1.88341792    -0.00126371    -0.00037682    -0.00000763
H        -1.04429335    -0.09952082     1.89739521     0.00030834    -0.00010815     0.00077176
H        -1.10083487     0.09340616    -0.61939223     0.00040687     0.00015190    -0.00100914
     6
  Step:    35            Position(A)                                  Velocity(au)
C        -0.02870318    -0.00646806    -0.08997394     0.00002614    -0.00009021     0.00039434
N        -0.04080544    -0.03345868     1.40593836     0.00003472     0.00005969    -0.00026304
H         1.00163323     0.13144962    -0.73313667    -0.00071256     0.00058674    -0.00074837
H         0.83453348    -0.25337396     1.88351243    -0.00118461    -0.00040086     0.00004519
H        -1.04181169    -0.10005722     1.90130499     0.00057792    -0.00008453     0.00063275
H        -1.09823589     0.09423007    -0.62491447     0.00052526     0.00014412    -0.00097325
     6
  Step:    36            Position(A)                                  Velocity(au)
C        -0.02855717    -0.00696971    -0.08767951     0.00002623    -0.00009004     0.00042896
N        -0.04067704    -0.03312325     1.40437990     0.00001135     0.00006096    -0.00029630
H         0.99725445     0.13469441    -0.73704987    -0.00085746     0.00057917    -0.00065793
H         0.82818484    -0.25567840     1.88392115    -0.00108899    -0.00042886     0.00010430
H        -1.03785831    -0.10046201     1.90444074     0.00083552    -0.00006100     0.00049502
H        -1.09498615     0.09501091    -0.63022921     0.00064047     0.00013651    -0.00093533
     6
  Step:    37            Position(A)                                  Velocity(au)
C        -0.02841113    -0.00747038    -0.08519880     0.00002617    -0.00008988     0.00046140
N        -0.04067903    -0.03278010     1.40263993    -0.00001186     0.00006245    -0.00032830
H         0.99208810     0.13789684    -0.74046063    -0.00099536     0.00057171    -0.00056825
H         0.82241094    -0.25814796     1.88467349    -0.00098037    -0.00045980     0.00016756
H        -1.03251078    -0.10073622     1.90681551     0.00107726    -0.00003771     0.00036040
H        -1.09110620     0.09574972    -0.63532643     0.00075140     0.00012906    -0.00089549
     6
  Step:    38            Position(A)                                  Velocity(au)
C        -0.02826589    -0.00797019    -0.08254381     0.00002596    -0.00008972     0.00049153
N        -0.04080905    -0.03242816     1.40072563    -0.00003437     0.00006407    -0.00035886
H         0.98617534     0.14105800    -0.74337496    -0.00112514     0.00056432    -0.00047974
H         0.81727255    -0.26079634     1.88578622    -0.00086269    -0.00049249     0.00023254
H        -1.02586756    -0.10088178     1.90845229     0.00129917    -0.00001486     0.00023080
H        -1.08662248     0.09644748    -0.64019674     0.00085688     0.00012175    -0.00085387
     6
  Step:    39            Position(A)                                  Velocity(au)
C        -0.02812220    -0.00846914    -0.07972721     0.00002561    -0.00008954     0.00051920
N        -0.04106159    -0.03206684     1.39864522    -0.00005558     0.00006575    -0.00038774
H         0.97956336     0.14417869    -0.74580101    -0.00124559     0.00055695    -0.00039286
H         0.81280772    -0.26363027     1.88726203    -0.00074018    -0.00052561     0.00029658
H        -1.01804872    -0.10090163     1.90938469     0.00149719     0.00000736     0.00010826
H        -1.08156763     0.09710504    -0.64483147     0.00095571     0.00011457    -0.00081061
     6
  Step:    40            Position(A)                                  Velocity(au)
C        -0.02798077    -0.00896715    -0.07676259     0.00002513    -0.00008931     0.00054421
N        -0.04142788    -0.03169607     1.39640820    -0.00007489     0.00006737    -0.00041469
H         0.97230588     0.14725952    -0.74774945    -0.00135545     0.00054957    -0.00030815
H         0.80903072    -0.26664892     1.88908864    -0.00061720    -0.00055774     0.00035695
H        -1.00919648    -0.10079986     1.90965770     0.00166726     0.00002870    -0.00000506
H        -1.07598076     0.09772319    -0.64922281     0.00104668     0.00010751    -0.00076593
     6
  Step:    41            Position(A)                                  Velocity(au)
C        -0.02784228    -0.00946407    -0.07366463     0.00002453    -0.00008904     0.00056636
N        -0.04189591    -0.03131632     1.39402554    -0.00009175     0.00006885    -0.00043943
H         0.96446345     0.15030097    -0.74923380    -0.00145348     0.00054219    -0.00022619
H         0.80593197    -0.26984363     1.89123856    -0.00049800    -0.00058751     0.00041096
H        -0.99947514    -0.10058190     1.90932833     0.00180552     0.00004892    -0.00010693
H        -1.06990746     0.09830268    -0.65336403     0.00112862     0.00010057    -0.00072008
     6
  Step:    42            Position(A)                                  Velocity(au)
C        -0.02770738    -0.00995968    -0.07044915     0.00002380    -0.00008871     0.00058546
N        -0.04245062    -0.03092855     1.39150967    -0.00010562     0.00007011    -0.00046173
H         0.95610331     0.15330361    -0.75027092    -0.00153854     0.00053488    -0.00014767
H         0.80347926    -0.27319814     1.89366985    -0.00038649    -0.00061362     0.00045617
H        -0.98906952    -0.10025451     1.90846573     0.00190858     0.00006777    -0.00019519
H        -1.06339955     0.09884424    -0.65724990     0.00120047     0.00009375    -0.00067343
     6
  Step:    43            Position(A)                                  Velocity(au)
C        -0.02757671    -0.01045373    -0.06713293     0.00002297    -0.00008833     0.00060140
N        -0.04307424    -0.03053416     1.38887433    -0.00011608     0.00007107    -0.00048138
H         0.94729881     0.15626833    -0.75088122    -0.00160970     0.00052774    -0.00007326
H         0.80162017    -0.27668940     1.89632777    -0.00028601    -0.00063498     0.00049052
H        -0.97818216    -0.09982586     1.90715074     0.00197370     0.00008499    -0.00026781
H        -1.05651445     0.09934864    -0.66087710     0.00126139     0.00008709    -0.00062640
     6
  Step:    44            Position(A)                                  Velocity(au)
C        -0.02745090    -0.01094600    -0.06373349     0.00002202    -0.00008791     0.00061411
N        -0.04374686    -0.03013490     1.38613430    -0.00012281     0.00007170    -0.00049827
H         0.93812835     0.15919669    -0.75108895    -0.00166629     0.00052095    -0.00000366
H         0.80028554    -0.28028875     1.89914729    -0.00019920    -0.00065079     0.00051249
H        -0.96702989    -0.09930542     1.90547520     0.00199890     0.00010038    -0.00032296
H        -1.04931402     0.09981672    -0.66424464     0.00131079     0.00008059    -0.00057948
     6