    14
  Step:     0            Position(A)                                  Velocity(au)
C        -5.97799141    -0.69891581    -0.18941515    -0.00009715     0.00014958     0.00007012
C        -4.67949426    -0.77938849     0.16859703     0.00003811    -0.00002381     0.00000074
H        -6.39480419     0.19744439    -0.60555374    -0.00036054     0.00068323    -0.00022482
H        -6.65928116    -1.55765605    -0.14274118     0.00176245    -0.00130585    -0.00060448
H        -4.21849673    -1.72450259     0.54843900    -0.00012500    -0.00030642     0.00037213
C        -3.90571653     0.40782734    -0.00725668     0.00000116    -0.00009236    -0.00001403
C        -2.54242098     0.51217815     0.25984557    -0.00003033     0.00013933    -0.00006140
H        -4.31983623     1.32625486    -0.46715588    -0.00013425     0.00079381     0.00057999
H        -1.98881329    -0.32921343     0.72169569     0.00029467    -0.00024294     0.00020230
C        -1.87670898     1.70514862     0.05460130     0.00042910    -0.00011616    -0.00008182
H        -2.38959862     2.64549081    -0.22597056    -0.00054383    -0.00016359    -0.00022718
N        -0.54835638     1.78607252     0.10085782    -0.00039890     0.00003457     0.00008527
H        -0.07854070     2.65113691    -0.10195917     0.00051712     0.00005055    -0.00043087
H        -0.10928968     0.94610755     0.47303989     0.00007047    -0.00066336     0.00017740
    14
  Step:     1            Position(A)                                  Velocity(au)
C        -5.97935965    -0.69741343    -0.18871014    -0.00015225     0.00012630     0.00005790
C        -4.67880441    -0.77958812     0.16866357     0.00008759    -0.00001213     0.00001156
H        -6.39896479     0.20560778    -0.60812853    -0.00039148     0.00077947    -0.00023215
H        -6.63980094    -1.57175631    -0.14929329     0.00178630    -0.00126574    -0.00059548
H        -4.22025344    -1.72685694     0.55226411    -0.00019750    -0.00011818     0.00032255
C        -3.90606350     0.40675033    -0.00750258    -0.00006539    -0.00010329    -0.00003121
C        -2.54238520     0.51364269     0.25933635     0.00003862     0.00012691    -0.00003099
H        -4.32184307     1.33413638    -0.46045965    -0.00022800     0.00063184     0.00064869
H        -1.98584867    -0.33153620     0.72331733     0.00023835    -0.00016976     0.00008817
C        -1.87214174     1.70403785     0.05363800     0.00039981    -0.00008634    -0.00009488
H        -2.39554548     2.64288481    -0.22848031    -0.00053224    -0.00031974    -0.00022911
N        -0.55260885     1.78638622     0.10184288    -0.00037171     0.00002266     0.00009566
H        -0.07227833     2.65191978    -0.10655428     0.00060814     0.00006462    -0.00040309
H        -0.10766478     0.93939882     0.47472273     0.00020693    -0.00053035     0.00011506
    14
  Step:     2            Position(A)                                  Velocity(au)
C        -5.98132208    -0.69615279    -0.18814847    -0.00020524     0.00010557     0.00004404
C        -4.67757805    -0.77965383     0.16884994     0.00013544     0.00000121     0.00002231
H        -6.40336867     0.21449671    -0.61063238    -0.00040487     0.00081513    -0.00021192
H        -6.62020232    -1.58534646    -0.15576853     0.00178306    -0.00121409    -0.00059055
H        -4.22281744    -1.72708799     0.55549545    -0.00026925     0.00007562     0.00026614
C        -3.90714700     0.40556760    -0.00793941    -0.00013302    -0.00011217    -0.00004860
C        -2.54157603     0.51495457     0.25916762     0.00011043     0.00011212     0.00000042
H        -4.32482426     1.34007765    -0.45296456    -0.00031380     0.00044415     0.00072356
H        -1.98359883    -0.33292716     0.72362458     0.00016788    -0.00007774    -0.00003495
C        -1.86796236     1.70325967     0.05252559     0.00035871    -0.00005622    -0.00010886
H        -2.40124244     2.63849582    -0.23098282    -0.00050073    -0.00048363    -0.00022755
N        -0.55648823     1.78656822     0.10295066    -0.00033111     0.00001114     0.00010742
H        -0.06523657     2.65255060    -0.11077753     0.00065888     0.00002352    -0.00036286
H        -0.10476271     0.93450523     0.47555714     0.00030644    -0.00033951     0.00002592
    14
  Step:     3            Position(A)                                  Velocity(au)
C        -5.98384969    -0.69510396    -0.18774659    -0.00025509     0.00008755     0.00002889
C        -4.67584150    -0.77956168     0.16915157     0.00018020     0.00001724     0.00003232
H        -6.40782216     0.22344035    -0.61276475    -0.00040146     0.00079122    -0.00016548
H        -6.60079318    -1.59831676    -0.16221268     0.00175117    -0.00115377    -0.00058989
H        -4.22614383    -1.72520251     0.55808653    -0.00033366     0.00026266     0.00020809
C        -3.90897347     0.40429648    -0.00856580    -0.00020066    -0.00011995    -0.00006552
C        -2.53996930     0.51609555     0.25934560     0.00018366     0.00009629     0.00003196
H        -4.32870801     1.34385295    -0.44463030    -0.00039456     0.00024126     0.00079963
H        -1.98217602    -0.33323702     0.72255284     0.00009117     0.00002255    -0.00016074
C        -1.86429433     1.70280788     0.05125652     0.00030717    -0.00002743    -0.00012330
H        -2.40649992     2.63230455    -0.23345836    -0.00045482    -0.00064330    -0.00022589
N        -0.55985241     1.78662982     0.10419295    -0.00027838     0.00000115     0.00011997
H        -0.05786402     2.65243423    -0.11449250     0.00067000    -0.00006778    -0.00031100
H        -0.10096089     0.93197131     0.47528985     0.00037506    -0.00010874    -0.00008197
    14
  Step:     4            Position(A)                                  Velocity(au)
C        -5.98690256    -0.69423746    -0.18751654    -0.00030087     0.00007204     0.00001287
C        -4.67363579    -0.77927660     0.16955691     0.00022066     0.00003691     0.00004099
H        -6.41215142     0.23180621    -0.61425246    -0.00038385     0.00071321    -0.00009619
H        -6.58189213    -1.61058730    -0.16867354     0.00169025    -0.00108727    -0.00059367
H        -4.23011680    -1.72134182     0.56004779    -0.00038444     0.00043084     0.00015353
C        -3.91153677     0.40294350    -0.00937283    -0.00026702    -0.00012758    -0.00008128
C        -2.53755802     0.51706120     0.25986678     0.00025657     0.00008058     0.00006273
H        -4.33345604     1.34535567    -0.43547111    -0.00047341     0.00003420     0.00087200
H        -1.98160435    -0.33243383     0.72010807     0.00001630     0.00012037    -0.00028271
C        -1.86124248     1.70265960     0.04982815     0.00024721    -0.00000133    -0.00013776
H        -2.41119259     2.62442235    -0.23592467    -0.00040062    -0.00078703    -0.00022751
N        -0.56257825     1.78659328     0.10557526    -0.00021563    -0.00000646     0.00013275
H        -0.05057896     2.65106777    -0.11758135     0.00064603    -0.00019828    -0.00024994
H        -0.09655762     0.93212637     0.47376400     0.00042081     0.00014143    -0.00019945
    14
  Step:     5            Position(A)                                  Velocity(au)
C        -5.99043187    -0.69352791    -0.18746496    -0.00034190     0.00005854    -0.00000348
C        -4.67101424    -0.77875428     0.17004829     0.00025576     0.00006091     0.00004782
H        -6.41621967     0.23904329    -0.61486913    -0.00035598     0.00058991    -0.00000890
H        -6.56381564    -1.62210282    -0.17520028     0.00160101    -0.00101655    -0.00060199
H        -4.23455416    -1.71577713     0.56144540    -0.00041592     0.00056874     0.00010742
C        -3.91481502     0.40150534    -0.01034399    -0.00033046    -0.00013586    -0.00009520
C        -2.53435641     0.51785848     0.26071794     0.00032697     0.00006589     0.00009185
H        -4.33906469     1.34460124    -0.42555358    -0.00055346    -0.00016594     0.00093604
H        -1.98181940    -0.33060366     0.71636796    -0.00004873     0.00020503    -0.00039440
C        -1.85888613     1.70277873     0.04824266     0.00018145     0.00002105    -0.00015182
H        -2.41526434     2.61508681    -0.23843549    -0.00034462    -0.00090367    -0.00023558
N        -0.56456980     1.78648853     0.10709711    -0.00014565    -0.00001111     0.00014523
H        -0.04373082     2.64809649    -0.11996039     0.00059450    -0.00035288    -0.00018329
H        -0.09175495     0.93506540     0.47092645     0.00045290     0.00038944    -0.00031703
    14
  Step:     6            Position(A)                                  Velocity(au)
C        -5.99438218    -0.69295674    -0.18759264    -0.00037762     0.00004635    -0.00001963
C        -4.66804051    -0.77794416     0.17060316     0.00028460     0.00008959     0.00005244
H        -6.41993922     0.24471162    -0.61444709    -0.00032257     0.00043225     0.00009078
H        -6.54686686    -1.63282628    -0.18184324     0.00148518    -0.00094296    -0.00061494
H        -4.23921583    -1.70889945     0.56239782    -0.00042331     0.00066625     0.00007422
C        -3.91876629     0.39997119    -0.01145546    -0.00038894    -0.00014530    -0.00010663
C        -2.53040495     0.51850263     0.26187626     0.00039228     0.00005282     0.00011847
H        -4.34556404     1.34172531    -0.41499345    -0.00063770    -0.00034847     0.00098749
H        -1.98267031    -0.32794840     0.71147982    -0.00009624     0.00026620    -0.00048963
C        -1.85727287     1.70312006     0.04650687     0.00011294     0.00003907    -0.00016505
H        -2.41873192     2.60465291    -0.24107846    -0.00029344    -0.00098313    -0.00025301
N        -0.56576459     1.78635027     0.10875247    -0.00007163    -0.00001247     0.00015693
H        -0.03757308     2.64334781    -0.12159113     0.00052501    -0.00051416    -0.00011552
H        -0.08664951     0.94064621     0.46682828     0.00048119     0.00061397    -0.00042539
    14
  Step:     7            Position(A)                                  Velocity(au)
C        -5.99869300    -0.69251383    -0.18789435    -0.00040761     0.00003465    -0.00003502
C        -4.66478812    -0.77679437     0.17119546     0.00030626     0.00012279     0.00005459
H        -6.42327659     0.24849964    -0.61288321    -0.00028868     0.00025243     0.00019686
H        -6.53132457    -1.64273198    -0.18865320     0.00134536    -0.00086726    -0.00063249
H        -4.24381496    -1.70120166     0.56306899    -0.00040317     0.00071552     0.00005748
C        -3.92332383     0.39832661    -0.01267682    -0.00044007    -0.00015603    -0.00011504
C        -2.52577458     0.51901393     0.26330965     0.00044966     0.00004171     0.00014177
H        -4.35301570     1.33697783    -0.40395042    -0.00072882    -0.00050340     0.00102263
H        -1.98392486    -0.32477996     0.70565643    -0.00011929     0.00029443    -0.00056286
C        -1.85641530     1.70363352     0.04463183     0.00004490     0.00005247    -0.00017710
H        -2.42168391     2.59357891    -0.24397065    -0.00025334    -0.00101701    -0.00028221
N        -0.56613680     1.78621563     0.11053032     0.00000304    -0.00001043     0.00016744
H        -0.03224528     2.63684831    -0.12248755     0.00044836    -0.00066381    -0.00005159
H        -0.08122804     0.94849724     0.46162015     0.00051556     0.00079502    -0.00051591
    14
  Step:     8            Position(A)                                  Velocity(au)
C        -6.00329943    -0.69219864    -0.18835874    -0.00043149     0.00002254    -0.00004910
C        -4.66134054    -0.77525791     0.17179749     0.00031987     0.00015975     0.00005424
H        -6.42625476     0.25023398    -0.61014051    -0.00025949     0.00006330     0.00030333
H        -6.51743451    -1.65179931    -0.19568023     0.00118487    -0.00078968    -0.00065451
H        -4.24803590    -1.69324601     0.56365521    -0.00035394     0.00071237     0.00005927
C        -3.92839376     0.39655780    -0.01397223    -0.00048146    -0.00016780    -0.00012001
C        -2.52056772     0.51941503     0.26497765     0.00049642     0.00003269     0.00016107
H        -4.36150835     1.33071253    -0.39262149    -0.00082891    -0.00062208     0.00103850
H        -1.98528001    -0.32150716     0.69916622    -0.00011227     0.00028203    -0.00060979
C        -1.85629052     1.70426785     0.04263243    -0.00001953     0.00006126    -0.00018764
H        -2.42427415     2.58240395    -0.24725225    -0.00022960    -0.00099939    -0.00032485
N        -0.56569798     1.78612215     0.11241545     0.00007504    -0.00000503     0.00017641
H        -0.02776427     2.62882580    -0.12271968     0.00037577    -0.00078394     0.00000338
H        -0.07537071     0.95803875     0.45554177     0.00056515     0.00091526    -0.00058126
    14
  Step:     9            Position(A)                                  Velocity(au)
C        -6.00813262    -0.69202081    -0.18896858    -0.00044893     0.00000907    -0.00006137
C        -4.65779033    -0.77329950     0.17238203     0.00032472     0.00019911     0.00005154
H        -6.42895341     0.24988452    -0.60624719    -0.00024009    -0.00012201     0.00040440
H        -6.50540333    -1.66000773    -0.20297190     0.00100743    -0.00071009    -0.00068066
H        -4.25155817    -1.68561721     0.56436555    -0.00027648     0.00065737     0.00007963
C        -3.93385672     0.39465567    -0.01530233    -0.00051105    -0.00018003    -0.00012133
C        -2.51491437     0.51972899     0.26683331     0.00053042     0.00002571     0.00017591
H        -4.37114961     1.32336857    -0.38123115    -0.00093910    -0.00069804     0.00103323
H        -1.98638101    -0.31861003     0.69231605    -0.00007175     0.00022430    -0.00062804
C        -1.85684257     1.70497362     0.04052675    -0.00007757     0.00006572    -0.00019643
H        -2.42670686     2.57171535    -0.25107746    -0.00022577    -0.00092784    -0.00038169
N        -0.56449515     1.78610561     0.11438970     0.00014134     0.00000344     0.00018367
H        -0.02402462     2.61969821    -0.12241368     0.00031791    -0.00085836     0.00004445
H        -0.06886434     0.96852030     0.44890394     0.00063719     0.00096191    -0.00061623
    14
  Step:    10            Position(A)                                  Velocity(au)
C        -6.01312065    -0.69200014    -0.18970134    -0.00045972    -0.00000664    -0.00007138
C        -4.65423661    -0.77090197     0.17292500     0.00032038     0.00023893     0.00004691
H        -6.43150727     0.24756477    -0.60129353    -0.00023533    -0.00029061     0.00049458
H        -6.49539510    -1.66733384    -0.21057092     0.00081699    -0.00062820    -0.00071038
H        -4.25408441    -1.67886486     0.56539718    -0.00017427     0.00055672     0.00011613
C        -3.93957392     0.39261924    -0.01662664    -0.00052742    -0.00019183    -0.00011903
C        -2.50896369     0.51997746     0.26882598     0.00055039     0.00002054     0.00018610
H        -4.38205298     1.31544147    -0.37001765    -0.00105915    -0.00072792     0.00100635
H        -1.98684963    -0.31660016     0.68542671     0.00000274     0.00012080    -0.00061765
C        -1.85798759     1.70570562     0.03833515    -0.00012701     0.00006637    -0.00020331
H        -2.42921335     2.56210573    -0.25560237    -0.00024286    -0.00080425    -0.00045214
N        -0.56260590     1.78619749     0.11643367     0.00019951     0.00001445     0.00018921
H        -0.02080932     2.61004745    -0.12174725     0.00028389    -0.00087413     0.00006741
H        -0.06143089     0.97908243     0.44206054     0.00073551     0.00092901    -0.00061863
    14
  Step:    11            Position(A)                                  Velocity(au)
C        -6.01818998    -0.69216603    -0.19053005    -0.00046378    -0.00002542    -0.00007876
C        -4.65078137    -0.76807246     0.17340822     0.00030676     0.00027676     0.00004100
H        -6.43410167     0.24352690    -0.59542721    -0.00024952    -0.00043032     0.00056902
H        -6.48753009    -1.67375091    -0.21851281     0.00061752    -0.00054381    -0.00074292
H        -4.25537072    -1.67343788     0.56690611    -0.00005343     0.00042236     0.00016380
C        -3.94539515     0.39045902    -0.01790635    -0.00052993    -0.00020200    -0.00011338
C        -2.50287344     0.52017831     0.27090471     0.00055603     0.00001667     0.00019180
H        -4.39432053     1.30744385    -0.35921527    -0.00118700    -0.00071229     0.00095907
H        -1.98632113    -0.31596719     0.67880378     0.00010796    -0.00002345    -0.00058158
C        -1.85962107     1.70642563     0.03607890    -0.00016633     0.00006400    -0.00020829
H        -2.43201990     2.55412085    -0.26096896    -0.00027866    -0.00063557    -0.00053405
N        -0.56013043     1.78642181     0.11852895     0.00024798     0.00002719     0.00019320
H        -0.01781390     2.60057496    -0.12093896     0.00027991    -0.00082331     0.00006934
H        -0.05277361     0.98884414     0.43537028     0.00085901     0.00081946    -0.00059003
    14
  Step:    12            Position(A)                                  Velocity(au)
C        -6.02326677    -0.69255633    -0.19142436    -0.00046115    -0.00004795    -0.00008328
C        -4.64752563    -0.76484729     0.17382189     0.00028410     0.00030982     0.00003465
H        -6.43696605     0.23815079    -0.58884517    -0.00028620    -0.00053048     0.00062377
H        -6.48188562    -1.67923083    -0.22682375     0.00041284    -0.00045697    -0.00077736
H        -4.25525337    -1.66962482     0.56898055     0.00007791     0.00027076     0.00021559
C        -3.95116709     0.38820017    -0.01910696    -0.00051862    -0.00020904    -0.00010487
C        -2.49679943     0.52034212     0.27302205     0.00054794     0.00001326     0.00019348
H        -4.40802082     1.29985879    -0.34903615    -0.00131846    -0.00065616     0.00089423
H        -1.98448769    -0.31711306     0.67270357     0.00023685    -0.00019746    -0.00052571
C        -1.86162630     1.70710568     0.03377842    -0.00019482     0.00005968    -0.00021153
H        -2.43530958     2.54820143    -0.26728565    -0.00032753    -0.00043379    -0.00062346
N        -0.55718081     1.78679225     0.12066026     0.00028624     0.00004061     0.00019601
H        -0.01468570     2.59203593    -0.12023037     0.00030795    -0.00070485     0.00004927
H        -0.04263832     0.99700963     0.42915258     0.00100071     0.00064608    -0.00053598
    14
  Step:    13            Position(A)                                  Velocity(au)
C        -6.02827853    -0.69321507    -0.19235187    -0.00045204    -0.00007463    -0.00008482
C        -4.64456624    -0.76129452     0.17416618     0.00025287     0.00033525     0.00002878
H        -6.44036288     0.23192172    -0.58178102    -0.00034759    -0.00058313     0.00065634
H        -6.47849847    -1.68374806    -0.23551912     0.00020649    -0.00036816    -0.00081267
H        -4.25366638    -1.66751442     0.57162262     0.00021061     0.00012061     0.00026342
C        -3.95674092     0.38588587    -0.02020061    -0.00049420    -0.00021123    -0.00009420
C        -2.49088625     0.52046832     0.27513738     0.00052744     0.00000916     0.00019185
H        -4.42316438     1.29308907    -0.33965238    -0.00144718    -0.00056893     0.00081611
H        -1.98113966    -0.32028708     0.66730289     0.00037902    -0.00038507    -0.00045822
C        -1.86388314     1.70773115     0.03145135    -0.00021252     0.00005471    -0.00021335
H        -2.43918523     2.54463095    -0.27460823    -0.00038091    -0.00021491    -0.00071488
N        -0.55386830     1.78731020     0.12281708     0.00031493     0.00005361     0.00019811
H        -0.01107681     2.58515494    -0.11986119     0.00036479    -0.00052584     0.00000871
H        -0.03088119     1.00297843     0.42364466     0.00114781     0.00043081    -0.00046545
    14
  Step:    14            Position(A)                                  Velocity(au)
C        -6.03315594    -0.69418910    -0.19327989    -0.00043681    -0.00010552    -0.00008345
C        -4.64199358    -0.75751300     0.17445154     0.00021374     0.00035046     0.00002428
H        -6.44457030     0.22539369    -0.57448657    -0.00043408    -0.00058428     0.00066610
H        -6.47736823    -1.68728498    -0.24460243     0.00000171    -0.00027835    -0.00084773
H        -4.25064586    -1.66698624     0.57474329     0.00033576    -0.00001003     0.00029937
C        -3.96197860     0.38357919    -0.02116766    -0.00045789    -0.00020675    -0.00008212
C        -2.48526065     0.52054250     0.27721916     0.00049637     0.00000309     0.00018779
H        -4.43968065     1.28741240    -0.33118213    -0.00156500    -0.00046332     0.00072997
H        -1.97619600    -0.32553725     0.66267924     0.00052216    -0.00056696    -0.00038837
C        -1.86627563     1.70830262     0.02911099    -0.00022007     0.00005049    -0.00021419
H        -2.44364272     2.54349982    -0.28292495    -0.00042855     0.00000292    -0.00080182
N        -0.55029107     1.78796510     0.12499421     0.00033569     0.00006525     0.00019992
H        -0.00670521     2.58053219    -0.12003984     0.00044171    -0.00030168    -0.00004812
H        -0.01752785     1.00643432     0.41896987     0.00128335     0.00020155    -0.00038937
    14
  Step:    15            Position(A)                                  Velocity(au)
C        -6.03783469    -0.69552353    -0.19417744    -0.00041605    -0.00014021    -0.00007943
C        -4.63989028    -0.75362751     0.17469744     0.00016745     0.00035345     0.00002187
H        -6.44985925     0.21913950    -0.56720889    -0.00054371    -0.00053504     0.00065471
H        -6.47846117    -1.68983747    -0.25406490    -0.00019865    -0.00018901    -0.00088144
H        -4.24632095    -1.66773388     0.57817194     0.00044575    -0.00010643     0.00031699
C        -3.96675815     0.38136274    -0.02199725    -0.00041132    -0.00019398    -0.00006943
C        -2.48002730     0.52053602     0.27924559     0.00045678    -0.00000613     0.00018213
H        -4.45740176     1.28295299    -0.32368298    -0.00166280    -0.00035363     0.00064124
H        -1.96971648    -0.33269050     0.65880653     0.00065379    -0.00072362    -0.00032509
C        -1.86869763     1.70883563     0.02676543    -0.00021850     0.00004825    -0.00021454
H        -2.44856056     2.54469482    -0.29214965    -0.00046013     0.00020188    -0.00087764
N        -0.54652438     1.78873758     0.12719081     0.00035084     0.00007496     0.00020176
H        -0.00141346     2.57855513    -0.12091382     0.00052545    -0.00005461    -0.00011460
H        -0.00280539     1.00738766     0.41512654     0.00138920    -0.00001258    -0.00031859
    14
  Step:    16            Position(A)                                  Velocity(au)
C        -6.04225791    -0.69725641    -0.19501754    -0.00039056    -0.00017779    -0.00007323
C        -4.63833038    -0.74978070     0.17492995     0.00011482     0.00034306     0.00002199
H        -6.45646511     0.21368863    -0.56016363    -0.00067181    -0.00044247     0.00062627
H        -6.48171412    -1.69141983    -0.26388555    -0.00039205    -0.00010196    -0.00091270
H        -4.24089432    -1.66931470     0.58167810     0.00053499    -0.00015908     0.00031211
C        -3.97097696     0.37933550    -0.02268665    -0.00035636    -0.00017171    -0.00005680
C        -2.47526775     0.52040849     0.28120370     0.00041076    -0.00001934     0.00017560
H        -4.47605753     1.27967613    -0.31715370    -0.00173157    -0.00025351     0.00055489
H        -1.96189306    -0.34136780     0.65556725     0.00076304    -0.00083833    -0.00027559
C        -1.87105584     1.70935818     0.02441758    -0.00020902     0.00004893    -0.00021481
H        -2.45370898     2.54791644    -0.30212497    -0.00046695     0.00036683    -0.00093640
N        -0.54261574     1.78960494     0.12940817     0.00036288     0.00008272     0.00020370
H         0.00479005     2.57933752    -0.12254703     0.00060030     0.00018956    -0.00018267
H         0.01286356     1.00615909     0.41200013     0.00144946    -0.00018636    -0.00026202
    14
  Step:    17            Position(A)                                  Velocity(au)
C        -6.04637891    -0.69941296    -0.19577944    -0.00036138    -0.00021687    -0.00006550
C        -4.63737827    -0.74612244     0.17517853     0.00005682     0.00031916     0.00002480
H        -6.46455628     0.20945954    -0.55350806    -0.00081095    -0.00031940     0.00058709
H        -6.48703812    -1.69206803    -0.27403193    -0.00057628    -0.00001923    -0.00094051
H        -4.23461702    -1.67121411     0.58500002     0.00060023    -0.00016436     0.00028321
C        -3.97455427     0.37760627    -0.02323976    -0.00029507    -0.00013945    -0.00004471
C        -2.47104124     0.52011284     0.28308710     0.00036022    -0.00003686     0.00016865
H        -4.49528323     1.27740704    -0.31154376    -0.00176359    -0.00017402     0.00047474
H        -1.95302342    -0.35103058     0.65277755     0.00084196    -0.00089954    -0.00024448
C        -1.87327033     1.70990614     0.02206615    -0.00019279     0.00005300    -0.00021530
H        -2.45877602     2.55272002    -0.31263516    -0.00044316     0.00048705    -0.00097367
N        -0.53858573     1.79054718     0.13164704     0.00037401     0.00008900     0.00020556
H         0.01171930     2.58270217    -0.12491004     0.00065103     0.00040567    -0.00024404
H         0.02890432     1.00331061     0.40939427     0.00145338    -0.00030234    -0.00022530
    14
  Step:    18            Position(A)                                  Velocity(au)
C        -6.05016369    -0.70200091    -0.19645041    -0.00032975    -0.00025575    -0.00005701
C        -4.63708735    -0.74279838     0.17547258    -0.00000548     0.00028263     0.00003017
H        -6.47420613     0.20670122    -0.54732002    -0.00095159    -0.00018293     0.00054489
H        -6.49432129    -1.69184045    -0.28446112    -0.00074931     0.00005724    -0.00096399
H        -4.22776305    -1.67291034     0.58787378     0.00064035    -0.00012403     0.00023118
C        -3.97743224     0.37628486    -0.02366482    -0.00022955    -0.00009755    -0.00003346
C        -2.46738721     0.51960200     0.28489323     0.00030685    -0.00005838     0.00016151
H        -4.51463951     1.27586906    -0.30676792    -0.00175332    -0.00012227     0.00040320
H        -1.94347351    -0.36104692     0.65021869     0.00088612    -0.00090195    -0.00023357
C        -1.87527343     1.71051756     0.01970740    -0.00017083     0.00006038    -0.00021617
H        -2.46340396     2.55857156    -0.32342578    -0.00038636     0.00055704    -0.00098693
N        -0.53443364     1.79155189     0.13390528     0.00038577     0.00009459     0.00020705
H         0.01903247     2.58821239    -0.12788592     0.00066564     0.00057327    -0.00029163
H         0.04465898     0.99954490     0.40707116     0.00139679    -0.00035244    -0.00021044
    14
  Step:    19            Position(A)                                  Velocity(au)
C        -6.05359283    -0.70500797    -0.19702661    -0.00029705    -0.00029260    -0.00004856
C        -4.63749826    -0.73993933     0.17583850    -0.00007083     0.00023525     0.00003769
H        -6.48537409     0.20545768    -0.54158764    -0.00108310    -0.00005197     0.00050767
H        -6.50343076    -1.69081580    -0.29512103    -0.00090931     0.00012581    -0.00098234
H        -4.22060810    -1.67392759     0.59005749     0.00065596    -0.00004420     0.00015889
C        -3.97957613     0.37547222    -0.02397180    -0.00016189    -0.00004726    -0.00002310
C        -2.46432842     0.51883565     0.28662041     0.00025202    -0.00008301     0.00015415
H        -4.53364039     1.27473212    -0.30272298    -0.00169788    -0.00010096     0.00034126
H        -1.93363778    -0.37076245     0.64766778     0.00089446    -0.00084623    -0.00024212
C        -1.87700761     1.71122697     0.01733702    -0.00014400     0.00007053    -0.00021737
H        -2.46722835     2.56490633    -0.33422605    -0.00029740     0.00057631    -0.00097562
N        -0.53014621     1.79261643     0.13617658     0.00039890     0.00010038     0.00020775
H         0.02628143     2.59524348    -0.13129009     0.00063737     0.00067935    -0.00032054
H         0.05946179     0.99560022     0.40479053     0.00128217    -0.00033765    -0.00021620
    14
  Step:    20            Position(A)                                  Velocity(au)
C        -6.05666222    -0.70840213    -0.19751267    -0.00026466    -0.00032578    -0.00004086
C        -4.63863682    -0.73765193     0.17629712    -0.00013778     0.00017953     0.00004679
H        -6.49790102     0.20556437    -0.53621366    -0.00119512     0.00005575     0.00048253
H        -6.51421419    -1.68908815    -0.30595175    -0.00105449     0.00018540    -0.00099491
H        -4.21341269    -1.67387737     0.59134972     0.00064903     0.00006594     0.00007059
C        -3.98097390     0.37525104    -0.02417016    -0.00009414     0.00000940    -0.00001349
C        -2.46187379     0.51778589     0.28826566     0.00019690    -0.00010945     0.00014640
H        -4.55178387     1.27366025    -0.29930227    -0.00159714    -0.00010877     0.00028868
H        -1.92390548    -0.37955978     0.64492182     0.00086867    -0.00073792    -0.00026755
C        -1.87842375     1.71206043     0.01495202    -0.00011295     0.00008252    -0.00021871
H        -2.46991008     2.57117946    -0.34476940    -0.00017980     0.00054851    -0.00094094
N        -0.52570704     1.79374796     0.13845026     0.00041325     0.00010719     0.00020731