 Fermi distribution function

Calculation with static geometry


********************************************************************************
 iSCC Total electronic   Diff electronic      SCC error    
   10   -0.54316927E+01   -0.77271523E-13    0.17080135E-07
********************************************************************************

 Total charge:     1.00000000

 Atomic gross charges (e)
 Atom           Charge
    1       0.14522203
    2      -0.02398097
    3       0.15798431
    4       0.27682999
    5       0.26647491
    6       0.17746973

Nr. of electrons (up):     12.00000000
Atom populations (up)
 Atom       Population
    1       3.85477797
    2       5.02398097
    3       0.84201569
    4       0.72317001
    5       0.73352509
    6       0.82253027

l-shell populations (up)
 Atom Sh.   l       Population
    1   1   0       1.30181659
    1   2   1       2.55296138
    2   1   0       1.41395894
    2   2   1       3.61002204
    3   1   0       0.84201569
    4   1   0       0.72317001
    5   1   0       0.73352509
    6   1   0       0.82253027

Orbital populations (up)
 Atom Sh.   l   m       Population  Label
    1   1   0   0       1.30181659  s
    1   2   1  -1       0.61447485  p_y
    1   2   1   0       0.88499525  p_z
    1   2   1   1       1.05349129  p_x
    2   1   0   0       1.41395894  s
    2   2   1  -1       1.31141382  p_y
    2   2   1   0       1.13260085  p_z
    2   2   1   1       1.16600736  p_x
    3   1   0   0       0.84201569  s
    4   1   0   0       0.72317001  s
    5   1   0   0       0.73352509  s
    6   1   0   0       0.82253027  s

Fermi level:                        -0.4945456926 H          -13.4573 eV
Band energy:                        -8.9848239931 H         -244.4895 eV
TS:                                  0.0000000000 H            0.0000 eV
Band free energy (E-TS):            -8.9848239931 H         -244.4895 eV
Extrapolated E(0K):                 -8.9848239931 H         -244.4895 eV
Input / Output electrons (q):     12.0000000000     12.0000000000

Energy H0:                          -5.5667881427 H         -151.4800 eV
Energy SCC:                          0.1350954180 H            3.6761 eV
Total Electronic energy:            -5.4316927247 H         -147.8039 eV
Repulsive energy:                    0.2024525766 H            5.5090 eV
Total energy:                       -5.2292401481 H         -142.2949 eV
Extrapolated to 0:                  -5.2292401481 H         -142.2949 eV
Total Mermin free energy:           -5.2292401481 H         -142.2949 eV
Force related energy:               -5.2292401481 H         -142.2949 eV

SCC converged

Excitation Energy:                   0.1541818131 H            4.1955 eV

Total Forces
    1     -0.007002881247      0.001374749123     -0.012653000454
    2      0.001659068531     -0.008673374619     -0.008530025508
    3     -0.001186320968      0.005421767341      0.003132069544
    4     -0.002192845121     -0.003501561753      0.005033437367
    5      0.000709430711      0.007574312243      0.008637067267
    6      0.008013548094     -0.002195892334      0.004380451783

Maximal derivative component:        0.126530E-01 au


