|===============================================================================
|
|  DFTB+ release 20.1
|
|  Copyright (C) 2006 - 2020  DFTB+ developers group
|
|===============================================================================
|
|  When publishing results obtained with DFTB+, please cite the following
|  reference:
|
|  * DFTB+, a software package for efficient approximate density functional
|    theory based atomistic simulations, J. Chem. Phys. 152, 124101 (2020).
|    [doi: 10.1063/1.5143190]
|
|  You should also cite additional publications crediting the parametrization
|  data you use. Please consult the documentation of the SK-files for the
|  references.
|
|===============================================================================

Reading input file 'dftb_in.hsd'
Parser version: 8

--------------------------------------------------------------------------------
Reading SK-files:
Done.


Processed input in HSD format written to 'dftb_pin.hsd'

Starting initialization...
--------------------------------------------------------------------------------
OpenMP threads:              1
Chosen random seed:          504010721
Mode:                        Static calculation
Self consistent charges:     Yes
SCC-tolerance:                 0.100000E-05
Max. scc iterations:                   1000
Shell resolved Hubbard:      No
Spin polarisation:           No
Nr. of up electrons:            16.000000
Nr. of down electrons:          16.000000
Periodic boundaries:         No
Electronic solver:           Relatively robust
Maximal SCC-cycles:                    1000
Initial charges:             Set automatically (system chrg:   0.100E+01)
Included shells:             C:  s, p
                             H:  s
                             N:  s, p
Spin coupling constants:     C   1(s)-1(s):  -0.455900E-01
                             C   1(s)-2(p):  -0.293000E-01
                             C   2(p)-1(s):  -0.293000E-01
                             C   2(p)-2(p):  -0.275500E-01
                             H   1(s)-1(s):  -0.792500E-01
                             N   1(s)-1(s):  -0.468700E-01
                             N   1(s)-2(p):  -0.317000E-01
                             N   2(p)-1(s):  -0.317000E-01
                             N   2(p)-2(p):  -0.307200E-01
Range separated hybrid:      Yes
  Screening parameter omega:   0.300000E+00
  Range separated algorithm:   MatrixBased
Extra options:
                             Mulliken analysis
                             Force calculation
Force type                   original
                             Eigenvector printing


REKS Calcuation:             Yes
SSR(2,2) Calcuation:         Yes
Energy Functional:           (PPS+OSS)/2
Number of Core Orbitals:                 15
Number of Active Orbitals:                2
Number of Basis:                         32
Number of States:                         2
State-Averaging Weight:          0.500000
                                 0.500000
State of Interest:                        1
Initial Guess:               Diagonalize H0 matrix
Newton-Raphson for FON opt:  Yes
NR max. Iterations:                      50
Level Shifting:              Yes
Shift Value:                     0.300000
W Scale Factor:              C  =    3.200000
                             H  =    3.200000
                             N  =    3.200000
Transition Dipole:           No
Gradient of Microstate:      No
CP-REKS Solver:              Preconditioned Conjugate-Gradient
CG max. Iterations:                     100
CG Tolerance:                  0.100000E-07
Memory for A and Hxc:        Direct Updating Without Saving
Non-Adiabatic Coupling:      Yes

--------------------------------------------------------------------------------

***  Geometry step: 0

  iSCC       reks energy        Diff energy         x_a       SCC error   
    1      -16.3978598747       0.0000000000     0.999554    1.19710515
    2      -16.4134609475      -0.0156010728     0.999931    0.04588698
    3      -16.4170643847      -0.0036034372     0.999978    0.01986445
    4      -16.4182722819      -0.0012078972     0.999990    0.01135529
    5      -16.4187785914      -0.0005063095     0.999994    0.00810232
    6      -16.4190245098      -0.0002459185     0.999996    0.00589075
    7      -16.4191591627      -0.0001346529     0.999997    0.00424605
    8      -16.4192415469      -0.0000823842     0.999997    0.00304200
    9      -16.4192974934      -0.0000559465     0.999998    0.00216478
   10      -16.4193391932      -0.0000416998     0.999998    0.00154956
   11      -16.4193727672      -0.0000335741     0.999998    0.00130716
   12      -16.4194014585      -0.0000286912     0.999998    0.00116586
   13      -16.4194270673      -0.0000256088     0.999998    0.00113705
   14      -16.4194506345      -0.0000235672     0.999999    0.00110692
   15      -16.4194727826      -0.0000221481     0.999999    0.00107673
   16      -16.4194938947      -0.0000211122     0.999999    0.00104718
   17      -16.4195142125      -0.0000203177     0.999999    0.00101866
   18      -16.4195338911      -0.0000196786     0.999999    0.00099132
   19      -16.4195530319      -0.0000191409     0.999999    0.00096522
   20      -16.4195717025      -0.0000186705     0.999999    0.00094033
   21      -16.4195899480      -0.0000182455     0.999999    0.00091851
   22      -16.4196077994      -0.0000178514     0.999999    0.00089788
   23      -16.4196252782      -0.0000174788     0.999999    0.00087798
   24      -16.4196423997      -0.0000171215     0.999999    0.00085877
   25      -16.4196591750      -0.0000167753     0.999999    0.00084020
   26      -16.4196756127      -0.0000164377     0.999999    0.00082221
   27      -16.4196917196      -0.0000161069     0.999999    0.00080477
   28      -16.4197075014      -0.0000157818     0.999999    0.00078781
   29      -16.4197229631      -0.0000154617     0.999999    0.00077131
   30      -16.4197381094      -0.0000151464     0.999999    0.00075522
   31      -16.4197529450      -0.0000148355     0.999999    0.00073951
   32      -16.4197674741      -0.0000145292     0.999999    0.00072748
   33      -16.4197817015      -0.0000142273     0.999999    0.00073344
   34      -16.4197956315      -0.0000139301     0.999999    0.00073870
   35      -16.4198092690      -0.0000136375     0.999999    0.00074331
   36      -16.4198226187      -0.0000133497     0.999999    0.00074734
   37      -16.4198356855      -0.0000130668     0.999999    0.00075081
   38      -16.4198484744      -0.0000127889     0.999999    0.00075378
   39      -16.4198609904      -0.0000125161     0.999999    0.00075627
   40      -16.4198732388      -0.0000122484     0.999999    0.00075831
   41      -16.4198852248      -0.0000119859     0.999999    0.00075994
   42      -16.4198969535      -0.0000117288     0.999999    0.00076118
   43      -16.4199084304      -0.0000114769     0.999999    0.00076206
   44      -16.4199196607      -0.0000112303     0.999999    0.00076260
   45      -16.4199306496      -0.0000109890     0.999999    0.00076281
   46      -16.4199414026      -0.0000107530     0.999999    0.00076273
   47      -16.4199519248      -0.0000105222     0.999999    0.00076236
   48      -16.4199622216      -0.0000102967     0.999999    0.00076173
   49      -16.4199722980      -0.0000100764     0.999999    0.00076085
   50      -16.4199821592      -0.0000098612     0.999999    0.00075974
   51      -16.4199918103      -0.0000096511     0.999999    0.00075841
   52      -16.4200012563      -0.0000094460     0.999999    0.00075688
   53      -16.4200105021      -0.0000092458     0.999999    0.00075517
   54      -16.4200195526      -0.0000090505     0.999999    0.00075327
   55      -16.4200284124      -0.0000088599     0.999999    0.00075121
   56      -16.4200370864      -0.0000086740     1.000000    0.00074900
   57      -16.4200455791      -0.0000084927     1.000000    0.00074664
   58      -16.4200538949      -0.0000083159     1.000000    0.00074416
   59      -16.4200620384      -0.0000081434     1.000000    0.00074154
   60      -16.4200700137      -0.0000079753     1.000000    0.00073882
   61      -16.4200778251      -0.0000078114     1.000000    0.00073599
   62      -16.4200854768      -0.0000076517     1.000000    0.00073306
   63      -16.4200929727      -0.0000074959     1.000000    0.00073005
   64      -16.4201003167      -0.0000073441     1.000000    0.00072695
   65      -16.4201075128      -0.0000071960     1.000000    0.00072377
   66      -16.4201145645      -0.0000070518     1.000000    0.00072053
   67      -16.4201214757      -0.0000069111     1.000000    0.00071722
   68      -16.4201282497      -0.0000067740     1.000000    0.00071386
   69      -16.4201348900      -0.0000066404     1.000000    0.00071044
   70      -16.4201414001      -0.0000065101     1.000000    0.00070698
   71      -16.4201477832      -0.0000063831     1.000000    0.00070347
   72      -16.4201540424      -0.0000062592     1.000000    0.00069993
   73      -16.4201601809      -0.0000061385     1.000000    0.00069635
   74      -16.4201662017      -0.0000060208     1.000000    0.00069275
   75      -16.4201721077      -0.0000059060     1.000000    0.00068911
   76      -16.4201779018      -0.0000057941     1.000000    0.00068546
   77      -16.4201835868      -0.0000056849     1.000000    0.00068178
   78      -16.4201891653      -0.0000055785     1.000000    0.00067809
   79      -16.4201946400      -0.0000054747     1.000000    0.00067438
   80      -16.4202000134      -0.0000053734     1.000000    0.00067067
   81      -16.4202052880      -0.0000052746     1.000000    0.00066695
   82      -16.4202104662      -0.0000051782     1.000000    0.00066322
   83      -16.4202155504      -0.0000050842     1.000000    0.00065948
   84      -16.4202205428      -0.0000049924     1.000000    0.00065575
   85      -16.4202254457      -0.0000049029     1.000000    0.00065201
   86      -16.4202302612      -0.0000048155     1.000000    0.00064828
   87      -16.4202349913      -0.0000047302     1.000000    0.00064455
   88      -16.4202396383      -0.0000046469     1.000000    0.00064083
   89      -16.4202442039      -0.0000045656     1.000000    0.00063711
   90      -16.4202486901      -0.0000044863     1.000000    0.00063340
   91      -16.4202530989      -0.0000044088     1.000000    0.00062971
   92      -16.4202574320      -0.0000043331     1.000000    0.00062602
   93      -16.4202616911      -0.0000042592     1.000000    0.00062234
   94      -16.4202658781      -0.0000041870     1.000000    0.00061868
   95      -16.4202699945      -0.0000041164     1.000000    0.00061503
   96      -16.4202740420      -0.0000040475     1.000000    0.00061140
   97      -16.4202780222      -0.0000039802     1.000000    0.00060778
   98      -16.4202819366      -0.0000039144     1.000000    0.00060417
   99      -16.4202857867      -0.0000038501     1.000000    0.00060059
  100      -16.4202895739      -0.0000037872     1.000000    0.00059702
  101      -16.4202932997      -0.0000037258     1.000000    0.00059347
  102      -16.4202969654      -0.0000036657     1.000000    0.00058994
  103      -16.4203005724      -0.0000036070     1.000000    0.00058643
  104      -16.4203041220      -0.0000035496     1.000000    0.00058293
  105      -16.4203076154      -0.0000034934     1.000000    0.00057946
  106      -16.4203110539      -0.0000034385     1.000000    0.00057601
  107      -16.4203144387      -0.0000033848     1.000000    0.00057258
  108      -16.4203177709      -0.0000033322     1.000000    0.00056917
  109      -16.4203210516      -0.0000032808     1.000000    0.00056578
  110      -16.4203242820      -0.0000032304     1.000000    0.00056241
  111      -16.4203274632      -0.0000031812     1.000000    0.00055906
  112      -16.4203305962      -0.0000031330     1.000000    0.00055574
  113      -16.4203336820      -0.0000030858     1.000000    0.00055244
  114      -16.4203367216      -0.0000030396     1.000000    0.00054916
  115      -16.4203397161      -0.0000029944     1.000000    0.00054590
  116      -16.4203426662      -0.0000029501     1.000000    0.00054267
  117      -16.4203455730      -0.0000029068     1.000000    0.00053946
  118      -16.4203484373      -0.0000028643     1.000000    0.00053627
  119      -16.4203512600      -0.0000028227     1.000000    0.00053310
  120      -16.4203540420      -0.0000027820     1.000000    0.00052996
  121      -16.4203567841      -0.0000027421     1.000000    0.00052684
  122      -16.4203594871      -0.0000027030     1.000000    0.00052374
  123      -16.4203621518      -0.0000026647     1.000000    0.00052067
  124      -16.4203647789      -0.0000026271     1.000000    0.00051762
  125      -16.4203673693      -0.0000025903     1.000000    0.00051459
  126      -16.4203699235      -0.0000025543     1.000000    0.00051158
  127      -16.4203724425      -0.0000025189     1.000000    0.00050860
  128      -16.4203749267      -0.0000024843     1.000000    0.00050564
  129      -16.4203773770      -0.0000024503     1.000000    0.00050270
  130      -16.4203797940      -0.0000024170     1.000000    0.00049978
  131      -16.4203821782      -0.0000023843     1.000000    0.00049689
  132      -16.4203845305      -0.0000023522     1.000000    0.00049402
  133      -16.4203868513      -0.0000023208     1.000000    0.00049117
  134      -16.4203891413      -0.0000022900     1.000000    0.00048834
  135      -16.4203914010      -0.0000022597     1.000000    0.00048554
  136      -16.4203936310      -0.0000022300     1.000000    0.00048275
  137      -16.4203958320      -0.0000022009     1.000000    0.00047999
  138      -16.4203980043      -0.0000021724     1.000000    0.00047725
  139      -16.4204001486      -0.0000021443     1.000000    0.00047453
  140      -16.4204022654      -0.0000021168     1.000000    0.00047184
  141      -16.4204043552      -0.0000020898     1.000000    0.00046916
  142      -16.4204064184      -0.0000020633     1.000000    0.00046651
  143      -16.4204084557      -0.0000020372     1.000000    0.00046387
  144      -16.4204104673      -0.0000020117     1.000000    0.00046126
  145      -16.4204124539      -0.0000019866     1.000000    0.00045867
  146      -16.4204144158      -0.0000019619     1.000000    0.00045609
  147      -16.4204163535      -0.0000019377     1.000000    0.00045354
  148      -16.4204182674      -0.0000019139     1.000000    0.00045101
  149      -16.4204201579      -0.0000018906     1.000000    0.00044850
  150      -16.4204220256      -0.0000018676     1.000000    0.00044601
  151      -16.4204238706      -0.0000018451     1.000000    0.00044354
  152      -16.4204256936      -0.0000018229     1.000000    0.00044109
  153      -16.4204274947      -0.0000018012     1.000000    0.00043865
  154      -16.4204292745      -0.0000017798     1.000000    0.00043624
  155      -16.4204310333      -0.0000017588     1.000000    0.00043385
  156      -16.4204327714      -0.0000017381     1.000000    0.00043147
  157      -16.4204344892      -0.0000017178     1.000000    0.00042911
  158      -16.4204361871      -0.0000016979     1.000000    0.00042678
  159      -16.4204378654      -0.0000016782     1.000000    0.00042446
  160      -16.4204395243      -0.0000016590     1.000000    0.00042216
  161      -16.4204411643      -0.0000016400     1.000000    0.00041987
  162      -16.4204427857      -0.0000016213     1.000000    0.00041761
  163      -16.4204443887      -0.0000016030     1.000000    0.00041536
  164      -16.4204459736      -0.0000015850     1.000000    0.00041313
  165      -16.4204475409      -0.0000015672     1.000000    0.00041092
  166      -16.4204490907      -0.0000015498     1.000000    0.00040873
  167      -16.4204506233      -0.0000015326     1.000000    0.00040655
  168      -16.4204521390      -0.0000015157     1.000000    0.00040439
  169      -16.4204536382      -0.0000014991     1.000000    0.00040225
  170      -16.4204551210      -0.0000014828     1.000000    0.00040012
  171      -16.4204565877      -0.0000014667     1.000000    0.00039801
  172      -16.4204580385      -0.0000014509     1.000000    0.00039592
  173      -16.4204594738      -0.0000014353     1.000000    0.00039384
  174      -16.4204608938      -0.0000014200     1.000000    0.00039178
  175      -16.4204622987      -0.0000014049     1.000000    0.00038974
  176      -16.4204636888      -0.0000013900     1.000000    0.00038771
  177      -16.4204650642      -0.0000013754     1.000000    0.00038570
  178      -16.4204664252      -0.0000013610     1.000000    0.00038370
  179      -16.4204677721      -0.0000013469     1.000000    0.00038172
  180      -16.4204691050      -0.0000013329     1.000000    0.00037975
  181      -16.4204704242      -0.0000013192     1.000000    0.00037780
  182      -16.4204717298      -0.0000013056     1.000000    0.00037586
  183      -16.4204730221      -0.0000012923     1.000000    0.00037394
  184      -16.4204743013      -0.0000012792     1.000000    0.00037203
  185      -16.4204755676      -0.0000012663     1.000000    0.00037014
  186      -16.4204768212      -0.0000012535     1.000000    0.00036826
  187      -16.4204780622      -0.0000012410     1.000000    0.00036639
  188      -16.4204792908      -0.0000012287     1.000000    0.00036454
  189      -16.4204805073      -0.0000012165     1.000000    0.00036271
  190      -16.4204817118      -0.0000012045     1.000000    0.00036088
  191      -16.4204829045      -0.0000011927     1.000000    0.00035908
  192      -16.4204840855      -0.0000011810     1.000000    0.00035728
  193      -16.4204852551      -0.0000011696     1.000000    0.00035550
  194      -16.4204864133      -0.0000011582     1.000000    0.00035373
  195      -16.4204875604      -0.0000011471     1.000000    0.00035197
  196      -16.4204886965      -0.0000011361     1.000000    0.00035023
  197      -16.4204898218      -0.0000011253     1.000000    0.00034850
  198      -16.4204909364      -0.0000011146     1.000000    0.00034678
  199      -16.4204920405      -0.0000011041     1.000000    0.00034508
  200      -16.4204931342      -0.0000010937     1.000000    0.00034339
  201      -16.4204942177      -0.0000010835     1.000000    0.00034171
  202      -16.4204952911      -0.0000010734     1.000000    0.00034004
  203      -16.4204963546      -0.0000010635     1.000000    0.00033839
  204      -16.4204974082      -0.0000010536     1.000000    0.00033674
  205      -16.4204984522      -0.0000010440     1.000000    0.00033511
  206      -16.4204994866      -0.0000010344     1.000000    0.00033349
  207      -16.4205005116      -0.0000010250     1.000000    0.00033188
  208      -16.4205015273      -0.0000010157     1.000000    0.00033029
  209      -16.4205025339      -0.0000010066     1.000000    0.00032870
  210      -16.4205035315      -0.0000009975     1.000000    0.00032713
  211      -16.4205045201      -0.0000009886     1.000000    0.00032557
  212      -16.4205055000      -0.0000009798     1.000000    0.00032402
  213      -16.4205064711      -0.0000009712     1.000000    0.00032248
  214      -16.4205074337      -0.0000009626     1.000000    0.00032095
  215      -16.4205083879      -0.0000009542     1.000000    0.00031943
  216      -16.4205093337      -0.0000009458     1.000000    0.00031792
  217      -16.4205102713      -0.0000009376     1.000000    0.00031642
  218      -16.4205112008      -0.0000009295     1.000000    0.00031494
  219      -16.4205121223      -0.0000009215     1.000000    0.00031346
  220      -16.4205130359      -0.0000009136     1.000000    0.00031199
  221      -16.4205139416      -0.0000009058     1.000000    0.00031054
  222      -16.4205148397      -0.0000008980     1.000000    0.00030909
  223      -16.4205157301      -0.0000008904     1.000000    0.00030765
  224      -16.4205166130      -0.0000008829     1.000000    0.00030623
  225      -16.4205174885      -0.0000008755     1.000000    0.00030481
  226      -16.4205183567      -0.0000008682     1.000000    0.00030340
  227      -16.4205192176      -0.0000008609     1.000000    0.00030200
  228      -16.4205200714      -0.0000008538     1.000000    0.00030061
  229      -16.4205209182      -0.0000008468     1.000000    0.00029924
  230      -16.4205217580      -0.0000008398     1.000000    0.00029787
  231      -16.4205225909      -0.0000008329     1.000000    0.00029650
  232      -16.4205234170      -0.0000008261     1.000000    0.00029515
  233      -16.4205242364      -0.0000008194     1.000000    0.00029381
  234      -16.4205250492      -0.0000008128     1.000000    0.00029248
  235      -16.4205258554      -0.0000008062     1.000000    0.00029115
  236      -16.4205266551      -0.0000007997     1.000000    0.00028983
  237      -16.4205274485      -0.0000007933     1.000000    0.00028853
  238      -16.4205282355      -0.0000007870     1.000000    0.00028723
  239      -16.4205290163      -0.0000007808     1.000000    0.00028593
  240      -16.4205297909      -0.0000007746     1.000000    0.00028465
  241      -16.4205305594      -0.0000007685     1.000000    0.00028338
  242      -16.4205313219      -0.0000007625     1.000000    0.00028211
  243      -16.4205320784      -0.0000007565     1.000000    0.00028085
  244      -16.4205328291      -0.0000007507     1.000000    0.00027960
  245      -16.4205335739      -0.0000007448     1.000000    0.00027836
  246      -16.4205343130      -0.0000007391     1.000000    0.00027712
  247      -16.4205350464      -0.0000007334     1.000000    0.00027590
  248      -16.4205357742      -0.0000007278     1.000000    0.00027468
  249      -16.4205364964      -0.0000007222     1.000000    0.00027347
  250      -16.4205372132      -0.0000007167     1.000000    0.00027226
  251      -16.4205379245      -0.0000007113     1.000000    0.00027106
  252      -16.4205386304      -0.0000007059     1.000000    0.00026988
  253      -16.4205393310      -0.0000007006     1.000000    0.00026869
  254      -16.4205400264      -0.0000006954     1.000000    0.00026752
  255      -16.4205407166      -0.0000006902     1.000000    0.00026635
  256      -16.4205414016      -0.0000006850     1.000000    0.00026519
  257      -16.4205420816      -0.0000006800     1.000000    0.00026404
  258      -16.4205427565      -0.0000006749     1.000000    0.00026289
  259      -16.4205434265      -0.0000006700     1.000000    0.00026175
  260      -16.4205440916      -0.0000006651     1.000000    0.00026062
  261      -16.4205447518      -0.0000006602     1.000000    0.00025949
  262      -16.4205454072      -0.0000006554     1.000000    0.00025837
  263      -16.4205460578      -0.0000006506     1.000000    0.00025726
  264      -16.4205467037      -0.0000006459     1.000000    0.00025615
  265      -16.4205473450      -0.0000006413     1.000000    0.00025505
  266      -16.4205479816      -0.0000006367     1.000000    0.00025395
  267      -16.4205486137      -0.0000006321     1.000000    0.00025287
  268      -16.4205492413      -0.0000006276     1.000000    0.00025179
  269      -16.4205498644      -0.0000006231     1.000000    0.00025071
  270      -16.4205504831      -0.0000006187     1.000000    0.00024964
  271      -16.4205510974      -0.0000006143     1.000000    0.00024858
  272      -16.4205517074      -0.0000006100     1.000000    0.00024752
  273      -16.4205523131      -0.0000006057     1.000000    0.00024647
  274      -16.4205529145      -0.0000006014     1.000000    0.00024542
  275      -16.4205535118      -0.0000005972     1.000000    0.00024439
  276      -16.4205541049      -0.0000005931     1.000000    0.00024335
  277      -16.4205546938      -0.0000005890     1.000000    0.00024232
  278      -16.4205552787      -0.0000005849     1.000000    0.00024130
  279      -16.4205558596      -0.0000005809     1.000000    0.00024028
  280      -16.4205564365      -0.0000005769     1.000000    0.00023927
  281      -16.4205570094      -0.0000005729     1.000000    0.00023827
  282      -16.4205575784      -0.0000005690     1.000000    0.00023727
  283      -16.4205581435      -0.0000005651     1.000000    0.00023627
  284      -16.4205587047      -0.0000005613     1.000000    0.00023528
  285      -16.4205592622      -0.0000005575     1.000000    0.00023430
  286      -16.4205598158      -0.0000005537     1.000000    0.00023332
  287      -16.4205603658      -0.0000005499     1.000000    0.00023234
  288      -16.4205609120      -0.0000005462     1.000000    0.00023138
  289      -16.4205614546      -0.0000005426     1.000000    0.00023041
  290      -16.4205619936      -0.0000005389     1.000000    0.00022945
  291      -16.4205625289      -0.0000005354     1.000000    0.00022850
  292      -16.4205630607      -0.0000005318     1.000000    0.00022755
  293      -16.4205635890      -0.0000005283     1.000000    0.00022661
  294      -16.4205641137      -0.0000005248     1.000000    0.00022567
  295      -16.4205646350      -0.0000005213     1.000000    0.00022473
  296      -16.4205651529      -0.0000005179     1.000000    0.00022380
  297      -16.4205656673      -0.0000005144     1.000000    0.00022288
  298      -16.4205661784      -0.0000005111     1.000000    0.00022196
  299      -16.4205666861      -0.0000005077     1.000000    0.00022104
  300      -16.4205671905      -0.0000005044     1.000000    0.00022013
  301      -16.4205676917      -0.0000005011     1.000000    0.00021922
  302      -16.4205681895      -0.0000004979     1.000000    0.00021832
  303      -16.4205686842      -0.0000004946     1.000000    0.00021742
  304      -16.4205691756      -0.0000004914     1.000000    0.00021653
  305      -16.4205696639      -0.0000004883     1.000000    0.00021564
  306      -16.4205701490      -0.0000004851     1.000000    0.00021475
  307      -16.4205706310      -0.0000004820     1.000000    0.00021387
  308      -16.4205711100      -0.0000004789     1.000000    0.00021299
  309      -16.4205715858      -0.0000004759     1.000000    0.00021212
  310      -16.4205720586      -0.0000004728     1.000000    0.00021125
  311      -16.4205725284      -0.0000004698     1.000000    0.00021039
  312      -16.4205729952      -0.0000004668     1.000000    0.00020952
  313      -16.4205734591      -0.0000004638     1.000000    0.00020867
  314      -16.4205739200      -0.0000004609     1.000000    0.00020781
  315      -16.4205743779      -0.0000004580     1.000000    0.00020697
  316      -16.4205748330      -0.0000004551     1.000000    0.00020612
  317      -16.4205752853      -0.0000004522     1.000000    0.00020528
  318      -16.4205757346      -0.0000004494     1.000000    0.00020444
  319      -16.4205761812      -0.0000004466     1.000000    0.00020361
  320      -16.4205766249      -0.0000004438     1.000000    0.00020278
  321      -16.4205770659      -0.0000004410     1.000000    0.00020195
  322      -16.4205775041      -0.0000004382     1.000000    0.00020113
  323      -16.4205779396      -0.0000004355     1.000000    0.00020031
  324      -16.4205783724      -0.0000004328     1.000000    0.00019949
  325      -16.4205788024      -0.0000004301     1.000000    0.00019868
  326      -16.4205792298      -0.0000004274     1.000000    0.00019787
  327      -16.4205796546      -0.0000004247     1.000000    0.00019707
  328      -16.4205800767      -0.0000004221     1.000000    0.00019627
  329      -16.4205804962      -0.0000004195     1.000000    0.00019547
  330      -16.4205809131      -0.0000004169     1.000000    0.00019467
  331      -16.4205813274      -0.0000004143     1.000000    0.00019388
  332      -16.4205817392      -0.0000004118     1.000000    0.00019309
  333      -16.4205821484      -0.0000004092     1.000000    0.00019231
  334      -16.4205825552      -0.0000004067     1.000000    0.00019153
  335      -16.4205829594      -0.0000004042     1.000000    0.00019075
  336      -16.4205833611      -0.0000004017     1.000000    0.00018997
  337      -16.4205837604      -0.0000003993     1.000000    0.00018920
  338      -16.4205841573      -0.0000003968     1.000000    0.00018843
  339      -16.4205845517      -0.0000003944     1.000000    0.00018767
  340      -16.4205849437      -0.0000003920     1.000000    0.00018690
  341      -16.4205853333      -0.0000003896     1.000000    0.00018614
  342      -16.4205857205      -0.0000003872     1.000000    0.00018539
  343      -16.4205861054      -0.0000003849     1.000000    0.00018463
  344      -16.4205864879      -0.0000003825     1.000000    0.00018388
  345      -16.4205868681      -0.0000003802     1.000000    0.00018313
  346      -16.4205872460      -0.0000003779     1.000000    0.00018239
  347      -16.4205876216      -0.0000003756     1.000000    0.00018165
  348      -16.4205879949      -0.0000003733     1.000000    0.00018091
  349      -16.4205883660      -0.0000003710     1.000000    0.00018017
  350      -16.4205887348      -0.0000003688     1.000000    0.00017944
  351      -16.4205891013      -0.0000003666     1.000000    0.00017871
  352      -16.4205894657      -0.0000003643     1.000000    0.00017798
  353      -16.4205898278      -0.0000003621     1.000000    0.00017725
  354      -16.4205901878      -0.0000003599     1.000000    0.00017653
  355      -16.4205905456      -0.0000003578     1.000000    0.00017581
  356      -16.4205909012      -0.0000003556     1.000000    0.00017509
  357      -16.4205912546      -0.0000003535     1.000000    0.00017438
  358      -16.4205916059      -0.0000003513     1.000000    0.00017366
  359      -16.4205919552      -0.0000003492     1.000000    0.00017295
  360      -16.4205923022      -0.0000003471     1.000000    0.00017225
  361      -16.4205926472      -0.0000003450     1.000000    0.00017154
  362      -16.4205929902      -0.0000003429     1.000000    0.00017084
  363      -16.4205933310      -0.0000003409     1.000000    0.00017014
  364      -16.4205936698      -0.0000003388     1.000000    0.00016944
  365      -16.4205940066      -0.0000003368     1.000000    0.00016875
  366      -16.4205943413      -0.0000003347     1.000000    0.00016806
  367      -16.4205946740      -0.0000003327     1.000000    0.00016737
  368      -16.4205950047      -0.0000003307     1.000000    0.00016668
  369      -16.4205953334      -0.0000003287     1.000000    0.00016600
  370      -16.4205956601      -0.0000003267     1.000000    0.00016531
  371      -16.4205959849      -0.0000003247     1.000000    0.00016463
  372      -16.4205963076      -0.0000003228     1.000000    0.00016396
  373      -16.4205966285      -0.0000003208     1.000000    0.00016328
  374      -16.4205969474      -0.0000003189     1.000000    0.00016261
  375      -16.4205972644      -0.0000003170     1.000000    0.00016194
  376      -16.4205975794      -0.0000003151     1.000000    0.00016127
  377      -16.4205978926      -0.0000003132     1.000000    0.00016060
  378      -16.4205982039      -0.0000003113     1.000000    0.00015994
  379      -16.4205985133      -0.0000003094     1.000000    0.00015927
  380      -16.4205988208      -0.0000003075     1.000000    0.00015861
  381      -16.4205991264      -0.0000003057     1.000000    0.00015796
  382      -16.4205994303      -0.0000003038     1.000000    0.00015730
  383      -16.4205997322      -0.0000003020     1.000000    0.00015665
  384      -16.4206000324      -0.0000003001     1.000000    0.00015600
  385      -16.4206003307      -0.0000002983     1.000000    0.00015535
  386      -16.4206006272      -0.0000002965     1.000000    0.00015470
  387      -16.4206009219      -0.0000002947     1.000000    0.00015405
  388      -16.4206012148      -0.0000002929     1.000000    0.00015341
  389      -16.4206015060      -0.0000002911     1.000000    0.00015277
  390      -16.4206017954      -0.0000002894     1.000000    0.00015213
  391      -16.4206020830      -0.0000002876     1.000000    0.00015150
  392      -16.4206023689      -0.0000002859     1.000000    0.00015086
  393      -16.4206026530      -0.0000002841     1.000000    0.00015023
  394      -16.4206029354      -0.0000002824     1.000000    0.00014960
  395      -16.4206032160      -0.0000002807     1.000000    0.00014897
  396      -16.4206034950      -0.0000002790     1.000000    0.00014834
  397      -16.4206037722      -0.0000002772     1.000000    0.00014772
  398      -16.4206040478      -0.0000002756     1.000000    0.00014709
  399      -16.4206043216      -0.0000002739     1.000000    0.00014647
  400      -16.4206045938      -0.0000002722     1.000000    0.00014585
  401      -16.4206048643      -0.0000002705     1.000000    0.00014524
  402      -16.4206051332      -0.0000002689     1.000000    0.00014462
  403      -16.4206054004      -0.0000002672     1.000000    0.00014401
  404      -16.4206056659      -0.0000002656     1.000000    0.00014340
  405      -16.4206059299      -0.0000002639     1.000000    0.00014279
  406      -16.4206061921      -0.0000002623     1.000000    0.00014218
  407      -16.4206064528      -0.0000002607     1.000000    0.00014157
  408      -16.4206067119      -0.0000002591     1.000000    0.00014097
  409      -16.4206069693      -0.0000002574     1.000000    0.00014037
  410      -16.4206072252      -0.0000002559     1.000000    0.00013976
  411      -16.4206074794      -0.0000002543     1.000000    0.00013917
  412      -16.4206077321      -0.0000002527     1.000000    0.00013857
  413      -16.4206079832      -0.0000002511     1.000000    0.00013797
  414      -16.4206082328      -0.0000002495     1.000000    0.00013738
  415      -16.4206084807      -0.0000002480     1.000000    0.00013679
  416      -16.4206087272      -0.0000002464     1.000000    0.00013620
  417      -16.4206089721      -0.0000002449     1.000000    0.00013561
  418      -16.4206092154      -0.0000002434     1.000000    0.00013502
  419      -16.4206094573      -0.0000002418     1.000000    0.00013444
  420      -16.4206096976      -0.0000002403     1.000000    0.00013386
  421      -16.4206099364      -0.0000002388     1.000000    0.00013327
  422      -16.4206101737      -0.0000002373     1.000000    0.00013269
  423      -16.4206104094      -0.0000002358     1.000000    0.00013212
  424      -16.4206106437      -0.0000002343     1.000000    0.00013154
  425      -16.4206108766      -0.0000002328     1.000000    0.00013097
  426      -16.4206111079      -0.0000002313     1.000000    0.00013039
  427      -16.4206113378      -0.0000002299     1.000000    0.00012982
  428      -16.4206115662      -0.0000002284     1.000000    0.00012925
  429      -16.4206117931      -0.0000002269     1.000000    0.00012868
  430      -16.4206120186      -0.0000002255     1.000000    0.00012812
  431      -16.4206122426      -0.0000002240     1.000000    0.00012755
  432      -16.4206124653      -0.0000002226     1.000000    0.00012699
  433      -16.4206126864      -0.0000002212     1.000000    0.00012643
  434      -16.4206129062      -0.0000002198     1.000000    0.00012587
  435      -16.4206131245      -0.0000002183     1.000000    0.00012531
  436      -16.4206133415      -0.0000002169     1.000000    0.00012476
  437      -16.4206135570      -0.0000002155     1.000000    0.00012420
  438      -16.4206137711      -0.0000002141     1.000000    0.00012365
  439      -16.4206139839      -0.0000002127     1.000000    0.00012310
  440      -16.4206141952      -0.0000002114     1.000000    0.00012255
  441      -16.4206144052      -0.0000002100     1.000000    0.00012200
  442      -16.4206146138      -0.0000002086     1.000000    0.00012145
  443      -16.4206148211      -0.0000002072     1.000000    0.00012091
  444      -16.4206150269      -0.0000002059     1.000000    0.00012036
  445      -16.4206152315      -0.0000002045     1.000000    0.00011982
  446      -16.4206154346      -0.0000002032     1.000000    0.00011928
  447      -16.4206156365      -0.0000002018     1.000000    0.00011874
  448      -16.4206158370      -0.0000002005     1.000000    0.00011820
  449      -16.4206160362      -0.0000001992     1.000000    0.00011767
  450      -16.4206162340      -0.0000001979     1.000000    0.00011713
  451      -16.4206164306      -0.0000001965     1.000000    0.00011660
  452      -16.4206166258      -0.0000001952     1.000000    0.00011607
  453      -16.4206168197      -0.0000001939     1.000000    0.00011554
  454      -16.4206170124      -0.0000001926     1.000000    0.00011501
  455      -16.4206172037      -0.0000001913     1.000000    0.00011449
  456      -16.4206173938      -0.0000001901     1.000000    0.00011396
  457      -16.4206175825      -0.0000001888     1.000000    0.00011344
  458      -16.4206177700      -0.0000001875     1.000000    0.00011292
  459      -16.4206179562      -0.0000001862     1.000000    0.00011239
  460      -16.4206181412      -0.0000001850     1.000000    0.00011188
  461      -16.4206183249      -0.0000001837     1.000000    0.00011136
  462      -16.4206185074      -0.0000001825     1.000000    0.00011084
  463      -16.4206186886      -0.0000001812     1.000000    0.00011033
  464      -16.4206188686      -0.0000001800     1.000000    0.00010982
  465      -16.4206190473      -0.0000001787     1.000000    0.00010930
  466      -16.4206192248      -0.0000001775     1.000000    0.00010880
  467      -16.4206194011      -0.0000001763     1.000000    0.00010829
  468      -16.4206195762      -0.0000001751     1.000000    0.00010778
  469      -16.4206197500      -0.0000001739     1.000000    0.00010728
  470      -16.4206199227      -0.0000001727     1.000000    0.00010677
  471      -16.4206200941      -0.0000001715     1.000000    0.00010627
  472      -16.4206202644      -0.0000001703     1.000000    0.00010577
  473      -16.4206204334      -0.0000001691     1.000000    0.00010527
  474      -16.4206206013      -0.0000001679     1.000000    0.00010477
  475      -16.4206207680      -0.0000001667     1.000000    0.00010428
  476      -16.4206209336      -0.0000001655     1.000000    0.00010378
  477      -16.4206210979      -0.0000001644     1.000000    0.00010329
  478      -16.4206212611      -0.0000001632     1.000000    0.00010280
  479      -16.4206214232      -0.0000001620     1.000000    0.00010231
  480      -16.4206215841      -0.0000001609     1.000000    0.00010182
  481      -16.4206217438      -0.0000001598     1.000000    0.00010133
  482      -16.4206219025      -0.0000001586     1.000000    0.00010085
  483      -16.4206220599      -0.0000001575     1.000000    0.00010036
  484      -16.4206222163      -0.0000001564     1.000000    0.00009988
  485      -16.4206223715      -0.0000001552     1.000000    0.00009940
  486      -16.4206225256      -0.0000001541     1.000000    0.00009892
  487      -16.4206226786      -0.0000001530     1.000000    0.00009844
  488      -16.4206228305      -0.0000001519     1.000000    0.00009796
  489      -16.4206229813      -0.0000001508     1.000000    0.00009749
  490      -16.4206231310      -0.0000001497     1.000000    0.00009701
  491      -16.4206232796      -0.0000001486     1.000000    0.00009654
  492      -16.4206234271      -0.0000001475     1.000000    0.00009607
  493      -16.4206235735      -0.0000001464     1.000000    0.00009560
  494      -16.4206237189      -0.0000001454     1.000000    0.00009513
  495      -16.4206238632      -0.0000001443     1.000000    0.00009467
  496      -16.4206240064      -0.0000001432     1.000000    0.00009420
  497      -16.4206241486      -0.0000001422     1.000000    0.00009374
  498      -16.4206242897      -0.0000001411     1.000000    0.00009328
  499      -16.4206244297      -0.0000001401     1.000000    0.00009282
  500      -16.4206245687      -0.0000001390     1.000000    0.00009236
  501      -16.4206247067      -0.0000001380     1.000000    0.00009190
  502      -16.4206248437      -0.0000001369     1.000000    0.00009144
  503      -16.4206249796      -0.0000001359     1.000000    0.00009099
  504      -16.4206251145      -0.0000001349     1.000000    0.00009054
  505      -16.4206252483      -0.0000001339     1.000000    0.00009009
  506      -16.4206253812      -0.0000001329     1.000000    0.00008964
  507      -16.4206255131      -0.0000001319     1.000000    0.00008919
  508      -16.4206256439      -0.0000001308     1.000000    0.00008874
  509      -16.4206257738      -0.0000001299     1.000000    0.00008829
  510      -16.4206259026      -0.0000001289     1.000000    0.00008785
  511      -16.4206260305      -0.0000001279     1.000000    0.00008741
  512      -16.4206261574      -0.0000001269     1.000000    0.00008697
  513      -16.4206262833      -0.0000001259     1.000000    0.00008653
  514      -16.4206264082      -0.0000001249     1.000000    0.00008609
  515      -16.4206265322      -0.0000001240     1.000000    0.00008565
  516      -16.4206266552      -0.0000001230     1.000000    0.00008522
  517      -16.4206267773      -0.0000001221     1.000000    0.00008478
  518      -16.4206268984      -0.0000001211     1.000000    0.00008435
  519      -16.4206270186      -0.0000001202     1.000000    0.00008392
  520      -16.4206271378      -0.0000001192     1.000000    0.00008349
  521      -16.4206272560      -0.0000001183     1.000000    0.00008306
  522      -16.4206273734      -0.0000001174     1.000000    0.00008264
  523      -16.4206274898      -0.0000001164     1.000000    0.00008221
  524      -16.4206276053      -0.0000001155     1.000000    0.00008179
  525      -16.4206277199      -0.0000001146     1.000000    0.00008137
  526      -16.4206278336      -0.0000001137     1.000000    0.00008095
  527      -16.4206279464      -0.0000001128     1.000000    0.00008053
  528      -16.4206280582      -0.0000001119     1.000000    0.00008011
  529      -16.4206281692      -0.0000001110     1.000000    0.00007969
  530      -16.4206282793      -0.0000001101     1.000000    0.00007928
  531      -16.4206283885      -0.0000001092     1.000000    0.00007887
  532      -16.4206284968      -0.0000001083     1.000000    0.00007846
  533      -16.4206286042      -0.0000001074     1.000000    0.00007805
  534      -16.4206287108      -0.0000001066     1.000000    0.00007764
  535      -16.4206288165      -0.0000001057     1.000000    0.00007723
  536      -16.4206289213      -0.0000001048     1.000000    0.00007682
  537      -16.4206290253      -0.0000001040     1.000000    0.00007642
  538      -16.4206291284      -0.0000001031     1.000000    0.00007602
  539      -16.4206292307      -0.0000001023     1.000000    0.00007562
  540      -16.4206293322      -0.0000001014     1.000000    0.00007522
  541      -16.4206294328      -0.0000001006     1.000000    0.00007482
  542      -16.4206295325      -0.0000000998     1.000000    0.00007442
  543      -16.4206296315      -0.0000000989     1.000000    0.00007403
  544      -16.4206297296      -0.0000000981     1.000000    0.00007363
  545      -16.4206298269      -0.0000000973     1.000000    0.00007324
  546      -16.4206299234      -0.0000000965     1.000000    0.00007285
  547      -16.4206300191      -0.0000000957     1.000000    0.00007246
  548      -16.4206301139      -0.0000000949     1.000000    0.00007207
  549      -16.4206302080      -0.0000000941     1.000000    0.00007169
  550      -16.4206303013      -0.0000000933     1.000000    0.00007130
  551      -16.4206303938      -0.0000000925     1.000000    0.00007092
  552      -16.4206304855      -0.0000000917     1.000000    0.00007054
  553      -16.4206305765      -0.0000000909     1.000000    0.00007016
  554      -16.4206306666      -0.0000000902     1.000000    0.00006978
  555      -16.4206307560      -0.0000000894     1.000000    0.00006940
  556      -16.4206308447      -0.0000000886     1.000000    0.00006902
  557      -16.4206309325      -0.0000000879     1.000000    0.00006865
  558      -16.4206310196      -0.0000000871     1.000000    0.00006828
  559      -16.4206311060      -0.0000000864     1.000000    0.00006791
  560      -16.4206311916      -0.0000000856     1.000000    0.00006754
  561      -16.4206312765      -0.0000000849     1.000000    0.00006717
  562      -16.4206313606      -0.0000000841     1.000000    0.00006680
  563      -16.4206314440      -0.0000000834     1.000000    0.00006643
  564      -16.4206315267      -0.0000000827     1.000000    0.00006607
  565      -16.4206316087      -0.0000000820     1.000000    0.00006571
  566      -16.4206316899      -0.0000000812     1.000000    0.00006535
  567      -16.4206317704      -0.0000000805     1.000000    0.00006499
  568      -16.4206318502      -0.0000000798     1.000000    0.00006463
  569      -16.4206319294      -0.0000000791     1.000000    0.00006427
  570      -16.4206320078      -0.0000000784     1.000000    0.00006391
  571      -16.4206320855      -0.0000000777     1.000000    0.00006356
  572      -16.4206321625      -0.0000000770     1.000000    0.00006321
  573      -16.4206322389      -0.0000000763     1.000000    0.00006286
  574      -16.4206323145      -0.0000000757     1.000000    0.00006251
  575      -16.4206323895      -0.0000000750     1.000000    0.00006216
  576      -16.4206324638      -0.0000000743     1.000000    0.00006181
  577      -16.4206325375      -0.0000000736     1.000000    0.00006147
  578      -16.4206326105      -0.0000000730     1.000000    0.00006112
  579      -16.4206326828      -0.0000000723     1.000000    0.00006078
  580      -16.4206327544      -0.0000000717     1.000000    0.00006044
  581      -16.4206328255      -0.0000000710     1.000000    0.00006010
  582      -16.4206328958      -0.0000000704     1.000000    0.00005976
  583      -16.4206329656      -0.0000000697     1.000000    0.00005943
  584      -16.4206330347      -0.0000000691     1.000000    0.00005909
  585      -16.4206331032      -0.0000000685     1.000000    0.00005876
  586      -16.4206331710      -0.0000000678     1.000000    0.00005843
  587      -16.4206332382      -0.0000000672     1.000000    0.00005810
  588      -16.4206333048      -0.0000000666     1.000000    0.00005777
  589      -16.4206333708      -0.0000000660     1.000000    0.00005744
  590      -16.4206334362      -0.0000000654     1.000000    0.00005711
  591      -16.4206335009      -0.0000000648     1.000000    0.00005679
  592      -16.4206335651      -0.0000000642     1.000000    0.00005646
  593      -16.4206336287      -0.0000000636     1.000000    0.00005614
  594      -16.4206336917      -0.0000000630     1.000000    0.00005582
  595      -16.4206337540      -0.0000000624     1.000000    0.00005550
  596      -16.4206338158      -0.0000000618     1.000000    0.00005518
  597      -16.4206338771      -0.0000000612     1.000000    0.00005487
  598      -16.4206339377      -0.0000000607     1.000000    0.00005455
  599      -16.4206339978      -0.0000000601     1.000000    0.00005424
  600      -16.4206340573      -0.0000000595     1.000000    0.00005393
  601      -16.4206341163      -0.0000000589     1.000000    0.00005361
  602      -16.4206341747      -0.0000000584     1.000000    0.00005331
  603      -16.4206342325      -0.0000000578     1.000000    0.00005300
  604      -16.4206342898      -0.0000000573     1.000000    0.00005269
  605      -16.4206343465      -0.0000000567     1.000000    0.00005239
  606      -16.4206344027      -0.0000000562     1.000000    0.00005208
  607      -16.4206344584      -0.0000000557     1.000000    0.00005178
  608      -16.4206345135      -0.0000000551     1.000000    0.00005148
  609      -16.4206345681      -0.0000000546     1.000000    0.00005118
  610      -16.4206346222      -0.0000000541     1.000000    0.00005088
  611      -16.4206346757      -0.0000000535     1.000000    0.00005058
  612      -16.4206347287      -0.0000000530     1.000000    0.00005029
  613      -16.4206347812      -0.0000000525     1.000000    0.00004999
  614      -16.4206348332      -0.0000000520     1.000000    0.00004970
  615      -16.4206348847      -0.0000000515     1.000000    0.00004941
  616      -16.4206349357      -0.0000000510     1.000000    0.00004912
  617      -16.4206349862      -0.0000000505     1.000000    0.00004883
  618      -16.4206350362      -0.0000000500     1.000000    0.00004854
  619      -16.4206350857      -0.0000000495     1.000000    0.00004826
  620      -16.4206351348      -0.0000000490     1.000000    0.00004797
  621      -16.4206351833      -0.0000000485     1.000000    0.00004769
  622      -16.4206352314      -0.0000000481     1.000000    0.00004741
  623      -16.4206352790      -0.0000000476     1.000000    0.00004713
  624      -16.4206353261      -0.0000000471     1.000000    0.00004685
  625      -16.4206353727      -0.0000000466     1.000000    0.00004657
  626      -16.4206354189      -0.0000000462     1.000000    0.00004630
  627      -16.4206354646      -0.0000000457     1.000000    0.00004602
  628      -16.4206355099      -0.0000000453     1.000000    0.00004575
  629      -16.4206355547      -0.0000000448     1.000000    0.00004548
  630      -16.4206355991      -0.0000000444     1.000000    0.00004520
  631      -16.4206356430      -0.0000000439     1.000000    0.00004493
  632      -16.4206356865      -0.0000000435     1.000000    0.00004467
  633      -16.4206357295      -0.0000000430     1.000000    0.00004440
  634      -16.4206357722      -0.0000000426     1.000000    0.00004413
  635      -16.4206358143      -0.0000000422     1.000000    0.00004387
  636      -16.4206358561      -0.0000000418     1.000000    0.00004361
  637      -16.4206358974      -0.0000000413     1.000000    0.00004334
  638      -16.4206359383      -0.0000000409     1.000000    0.00004308
  639      -16.4206359788      -0.0000000405     1.000000    0.00004283
  640      -16.4206360189      -0.0000000401     1.000000    0.00004257
  641      -16.4206360586      -0.0000000397     1.000000    0.00004231
  642      -16.4206360978      -0.0000000393     1.000000    0.00004206
  643      -16.4206361367      -0.0000000389     1.000000    0.00004180
  644      -16.4206361752      -0.0000000385     1.000000    0.00004155
  645      -16.4206362132      -0.0000000381     1.000000    0.00004130
  646      -16.4206362509      -0.0000000377     1.000000    0.00004105
  647      -16.4206362882      -0.0000000373     1.000000    0.00004080
  648      -16.4206363251      -0.0000000369     1.000000    0.00004055
  649      -16.4206363616      -0.0000000365     1.000000    0.00004031
  650      -16.4206363977      -0.0000000361     1.000000    0.00004006
  651      -16.4206364335      -0.0000000358     1.000000    0.00003982
  652      -16.4206364689      -0.0000000354     1.000000    0.00003957
  653      -16.4206365039      -0.0000000350     1.000000    0.00003933
  654      -16.4206365386      -0.0000000347     1.000000    0.00003909
  655      -16.4206365729      -0.0000000343     1.000000    0.00003885
  656      -16.4206366068      -0.0000000339     1.000000    0.00003862
  657      -16.4206366404      -0.0000000336     1.000000    0.00003838
  658      -16.4206366736      -0.0000000332     1.000000    0.00003815
  659      -16.4206367065      -0.0000000329     1.000000    0.00003791
  660      -16.4206367390      -0.0000000325     1.000000    0.00003768
  661      -16.4206367712      -0.0000000322     1.000000    0.00003745
  662      -16.4206368030      -0.0000000318     1.000000    0.00003722
  663      -16.4206368345      -0.0000000315     1.000000    0.00003699
  664      -16.4206368657      -0.0000000312     1.000000    0.00003676
  665      -16.4206368965      -0.0000000308     1.000000    0.00003654
  666      -16.4206369271      -0.0000000305     1.000000    0.00003631
  667      -16.4206369572      -0.0000000302     1.000000    0.00003609
  668      -16.4206369871      -0.0000000299     1.000000    0.00003586
  669      -16.4206370167      -0.0000000295     1.000000    0.00003564
  670      -16.4206370459      -0.0000000292     1.000000    0.00003542
  671      -16.4206370748      -0.0000000289     1.000000    0.00003520
  672      -16.4206371034      -0.0000000286     1.000000    0.00003498
  673      -16.4206371317      -0.0000000283     1.000000    0.00003477
  674      -16.4206371597      -0.0000000280     1.000000    0.00003455
  675      -16.4206371874      -0.0000000277     1.000000    0.00003434
  676      -16.4206372148      -0.0000000274     1.000000    0.00003412
  677      -16.4206372419      -0.0000000271     1.000000    0.00003391
  678      -16.4206372687      -0.0000000268     1.000000    0.00003370
  679      -16.4206372952      -0.0000000265     1.000000    0.00003349
  680      -16.4206373214      -0.0000000262     1.000000    0.00003328
  681      -16.4206373473      -0.0000000259     1.000000    0.00003307
  682      -16.4206373730      -0.0000000257     1.000000    0.00003287
  683      -16.4206373983      -0.0000000254     1.000000    0.00003266
  684      -16.4206374234      -0.0000000251     1.000000    0.00003246
  685      -16.4206374483      -0.0000000248     1.000000    0.00003225
  686      -16.4206374728      -0.0000000245     1.000000    0.00003205
  687      -16.4206374971      -0.0000000243     1.000000    0.00003185
  688      -16.4206375211      -0.0000000240     1.000000    0.00003165
  689      -16.4206375448      -0.0000000237     1.000000    0.00003145
  690      -16.4206375683      -0.0000000235     1.000000    0.00003126
  691      -16.4206375915      -0.0000000232     1.000000    0.00003106
  692      -16.4206376145      -0.0000000230     1.000000    0.00003086
  693      -16.4206376372      -0.0000000227     1.000000    0.00003067
  694      -16.4206376597      -0.0000000225     1.000000    0.00003048
  695      -16.4206376819      -0.0000000222     1.000000    0.00003028
  696      -16.4206377039      -0.0000000220     1.000000    0.00003009
  697      -16.4206377256      -0.0000000217     1.000000    0.00002990
  698      -16.4206377471      -0.0000000215     1.000000    0.00002971
  699      -16.4206377683      -0.0000000212     1.000000    0.00002953
  700      -16.4206377893      -0.0000000210     1.000000    0.00002934
  701      -16.4206378101      -0.0000000208     1.000000    0.00002915
  702      -16.4206378306      -0.0000000205     1.000000    0.00002897
  703      -16.4206378509      -0.0000000203     1.000000    0.00002879
  704      -16.4206378710      -0.0000000201     1.000000    0.00002860
  705      -16.4206378908      -0.0000000198     1.000000    0.00002842
  706      -16.4206379104      -0.0000000196     1.000000    0.00002824
  707      -16.4206379298      -0.0000000194     1.000000    0.00002806
  708      -16.4206379490      -0.0000000192     1.000000    0.00002788
  709      -16.4206379680      -0.0000000190     1.000000    0.00002771
  710      -16.4206379868      -0.0000000188     1.000000    0.00002753
  711      -16.4206380053      -0.0000000185     1.000000    0.00002735
  712      -16.4206380236      -0.0000000183     1.000000    0.00002718
  713      -16.4206380417      -0.0000000181     1.000000    0.00002701
  714      -16.4206380597      -0.0000000179     1.000000    0.00002683
  715      -16.4206380774      -0.0000000177     1.000000    0.00002666
  716      -16.4206380949      -0.0000000175     1.000000    0.00002649
  717      -16.4206381122      -0.0000000173     1.000000    0.00002632
  718      -16.4206381293      -0.0000000171     1.000000    0.00002615
  719      -16.4206381462      -0.0000000169     1.000000    0.00002599
  720      -16.4206381629      -0.0000000167     1.000000    0.00002582
  721      -16.4206381795      -0.0000000165     1.000000    0.00002566
  722      -16.4206381958      -0.0000000163     1.000000    0.00002549
  723      -16.4206382120      -0.0000000162     1.000000    0.00002533
  724      -16.4206382279      -0.0000000160     1.000000    0.00002517
  725      -16.4206382437      -0.0000000158     1.000000    0.00002500
  726      -16.4206382593      -0.0000000156     1.000000    0.00002484
  727      -16.4206382747      -0.0000000154     1.000000    0.00002468
  728      -16.4206382900      -0.0000000152     1.000000    0.00002452
  729      -16.4206383050      -0.0000000151     1.000000    0.00002437
  730      -16.4206383199      -0.0000000149     1.000000    0.00002421
  731      -16.4206383346      -0.0000000147     1.000000    0.00002405
  732      -16.4206383492      -0.0000000145     1.000000    0.00002390
  733      -16.4206383636      -0.0000000144     1.000000    0.00002374
  734      -16.4206383778      -0.0000000142     1.000000    0.00002359
  735      -16.4206383918      -0.0000000140     1.000000    0.00002344
  736      -16.4206384057      -0.0000000139     1.000000    0.00002329
  737      -16.4206384194      -0.0000000137     1.000000    0.00002314
  738      -16.4206384330      -0.0000000136     1.000000    0.00002299
  739      -16.4206384464      -0.0000000134     1.000000    0.00002284
  740      -16.4206384596      -0.0000000132     1.000000    0.00002269
  741      -16.4206384727      -0.0000000131     1.000000    0.00002254
  742      -16.4206384856      -0.0000000129     1.000000    0.00002240
  743      -16.4206384984      -0.0000000128     1.000000    0.00002225
  744      -16.4206385110      -0.0000000126     1.000000    0.00002211
  745      -16.4206385235      -0.0000000125     1.000000    0.00002196
  746      -16.4206385359      -0.0000000123     1.000000    0.00002182
  747      -16.4206385480      -0.0000000122     1.000000    0.00002168
  748      -16.4206385601      -0.0000000120     1.000000    0.00002154
  749      -16.4206385720      -0.0000000119     1.000000    0.00002140
  750      -16.4206385838      -0.0000000118     1.000000    0.00002126
  751      -16.4206385954      -0.0000000116     1.000000    0.00002112
  752      -16.4206386069      -0.0000000115     1.000000    0.00002098
  753      -16.4206386182      -0.0000000113     1.000000    0.00002085
  754      -16.4206386294      -0.0000000112     1.000000    0.00002071
  755      -16.4206386405      -0.0000000111     1.000000    0.00002058
  756      -16.4206386515      -0.0000000109     1.000000    0.00002044
  757      -16.4206386623      -0.0000000108     1.000000    0.00002031
  758      -16.4206386730      -0.0000000107     1.000000    0.00002018
  759      -16.4206386835      -0.0000000106     1.000000    0.00002004
  760      -16.4206386940      -0.0000000104     1.000000    0.00001991
  761      -16.4206387043      -0.0000000103     1.000000    0.00001978
  762      -16.4206387145      -0.0000000102     1.000000    0.00001965
  763      -16.4206387245      -0.0000000101     1.000000    0.00001953
  764      -16.4206387345      -0.0000000099     1.000000    0.00001940
  765      -16.4206387443      -0.0000000098     1.000000    0.00001927
  766      -16.4206387540      -0.0000000097     1.000000    0.00001914
  767      -16.4206387636      -0.0000000096     1.000000    0.00001902
  768      -16.4206387731      -0.0000000095     1.000000    0.00001889
  769      -16.4206387824      -0.0000000094     1.000000    0.00001877
  770      -16.4206387917      -0.0000000092     1.000000    0.00001865
  771      -16.4206388008      -0.0000000091     1.000000    0.00001853
  772      -16.4206388098      -0.0000000090     1.000000    0.00001840
  773      -16.4206388187      -0.0000000089     1.000000    0.00001828
  774      -16.4206388276      -0.0000000088     1.000000    0.00001816
  775      -16.4206388363      -0.0000000087     1.000000    0.00001804
  776      -16.4206388449      -0.0000000086     1.000000    0.00001792
  777      -16.4206388533      -0.0000000085     1.000000    0.00001781
  778      -16.4206388617      -0.0000000084     1.000000    0.00001769
  779      -16.4206388700      -0.0000000083     1.000000    0.00001757
  780      -16.4206388782      -0.0000000082     1.000000    0.00001746
  781      -16.4206388863      -0.0000000081     1.000000    0.00001734
  782      -16.4206388943      -0.0000000080     1.000000    0.00001723
  783      -16.4206389022      -0.0000000079     1.000000    0.00001711
  784      -16.4206389100      -0.0000000078     1.000000    0.00001700
  785      -16.4206389177      -0.0000000077     1.000000    0.00001689
  786      -16.4206389253      -0.0000000076     1.000000    0.00001678
  787      -16.4206389328      -0.0000000075     1.000000    0.00001667
  788      -16.4206389402      -0.0000000074     1.000000    0.00001656
  789      -16.4206389475      -0.0000000073     1.000000    0.00001645
  790      -16.4206389548      -0.0000000072     1.000000    0.00001634
  791      -16.4206389619      -0.0000000072     1.000000    0.00001623
  792      -16.4206389690      -0.0000000071     1.000000    0.00001612
  793      -16.4206389760      -0.0000000070     1.000000    0.00001602
  794      -16.4206389829      -0.0000000069     1.000000    0.00001591
  795      -16.4206389897      -0.0000000068     1.000000    0.00001581
  796      -16.4206389964      -0.0000000067     1.000000    0.00001570
  797      -16.4206390030      -0.0000000066     1.000000    0.00001560
  798      -16.4206390096      -0.0000000066     1.000000    0.00001549
  799      -16.4206390161      -0.0000000065     1.000000    0.00001539
  800      -16.4206390225      -0.0000000064     1.000000    0.00001529
  801      -16.4206390288      -0.0000000063     1.000000    0.00001519
  802      -16.4206390350      -0.0000000062     1.000000    0.00001509
  803      -16.4206390412      -0.0000000062     1.000000    0.00001499
  804      -16.4206390473      -0.0000000061     1.000000    0.00001489
  805      -16.4206390533      -0.0000000060     1.000000    0.00001479
  806      -16.4206390592      -0.0000000059     1.000000    0.00001469
  807      -16.4206390651      -0.0000000059     1.000000    0.00001459
  808      -16.4206390709      -0.0000000058     1.000000    0.00001450
  809      -16.4206390766      -0.0000000057     1.000000    0.00001440
  810      -16.4206390822      -0.0000000056     1.000000    0.00001430
  811      -16.4206390878      -0.0000000056     1.000000    0.00001421
  812      -16.4206390933      -0.0000000055     1.000000    0.00001411
  813      -16.4206390988      -0.0000000054     1.000000    0.00001402
  814      -16.4206391041      -0.0000000054     1.000000    0.00001393
  815      -16.4206391094      -0.0000000053     1.000000    0.00001383
  816      -16.4206391147      -0.0000000052     1.000000    0.00001374
  817      -16.4206391198      -0.0000000052     1.000000    0.00001365
  818      -16.4206391249      -0.0000000051     1.000000    0.00001356
  819      -16.4206391300      -0.0000000050     1.000000    0.00001347
  820      -16.4206391350      -0.0000000050     1.000000    0.00001338
  821      -16.4206391399      -0.0000000049     1.000000    0.00001329
  822      -16.4206391447      -0.0000000049     1.000000    0.00001320
  823      -16.4206391495      -0.0000000048     1.000000    0.00001311
  824      -16.4206391543      -0.0000000047     1.000000    0.00001302
  825      -16.4206391589      -0.0000000047     1.000000    0.00001294
  826      -16.4206391636      -0.0000000046     1.000000    0.00001285
  827      -16.4206391681      -0.0000000046     1.000000    0.00001277
  828      -16.4206391726      -0.0000000045     1.000000    0.00001268
  829      -16.4206391771      -0.0000000044     1.000000    0.00001260
  830      -16.4206391815      -0.0000000044     1.000000    0.00001251
  831      -16.4206391858      -0.0000000043     1.000000    0.00001243
  832      -16.4206391901      -0.0000000043     1.000000    0.00001234
  833      -16.4206391943      -0.0000000042     1.000000    0.00001226
  834      -16.4206391985      -0.0000000042     1.000000    0.00001218
  835      -16.4206392026      -0.0000000041     1.000000    0.00001210
  836      -16.4206392066      -0.0000000041     1.000000    0.00001202
  837      -16.4206392107      -0.0000000040     1.000000    0.00001194
  838      -16.4206392146      -0.0000000040     1.000000    0.00001186
  839      -16.4206392185      -0.0000000039     1.000000    0.00001178
  840      -16.4206392224      -0.0000000039     1.000000    0.00001170
  841      -16.4206392262      -0.0000000038     1.000000    0.00001162
  842      -16.4206392300      -0.0000000038     1.000000    0.00001154
  843      -16.4206392337      -0.0000000037     1.000000    0.00001146
  844      -16.4206392374      -0.0000000037     1.000000    0.00001139
  845      -16.4206392410      -0.0000000036     1.000000    0.00001131
  846      -16.4206392446      -0.0000000036     1.000000    0.00001123
  847      -16.4206392481      -0.0000000035     1.000000    0.00001116
  848      -16.4206392516      -0.0000000035     1.000000    0.00001108
  849      -16.4206392551      -0.0000000034     1.000000    0.00001101
  850      -16.4206392585      -0.0000000034     1.000000    0.00001094
  851      -16.4206392618      -0.0000000034     1.000000    0.00001086
  852      -16.4206392651      -0.0000000033     1.000000    0.00001079
  853      -16.4206392684      -0.0000000033     1.000000    0.00001072
  854      -16.4206392716      -0.0000000032     1.000000    0.00001064
  855      -16.4206392748      -0.0000000032     1.000000    0.00001057
  856      -16.4206392780      -0.0000000031     1.000000    0.00001050
  857      -16.4206392811      -0.0000000031     1.000000    0.00001043
  858      -16.4206392841      -0.0000000031     1.000000    0.00001036
  859      -16.4206392872      -0.0000000030     1.000000    0.00001029
  860      -16.4206392902      -0.0000000030     1.000000    0.00001022
  861      -16.4206392931      -0.0000000030     1.000000    0.00001016
  862      -16.4206392960      -0.0000000029     1.000000    0.00001009
  863      -16.4206392989      -0.0000000029     1.000000    0.00001003
  864      -16.4206393017      -0.0000000028     1.000000    0.00000996
  865      -16.4206393046      -0.0000000028     1.000000    0.00000990
  866      -16.4206393073      -0.0000000028     1.000000    0.00000984
  867      -16.4206393101      -0.0000000027     1.000000    0.00000977
  868      -16.4206393127      -0.0000000027     1.000000    0.00000971
  869      -16.4206393154      -0.0000000027     1.000000    0.00000965
  870      -16.4206393180      -0.0000000026     1.000000    0.00000958
  871      -16.4206393206      -0.0000000026     1.000000    0.00000952
  872      -16.4206393232      -0.0000000026     1.000000    0.00000946
  873      -16.4206393257      -0.0000000025     1.000000    0.00000940
  874      -16.4206393282      -0.0000000025     1.000000    0.00000934
  875      -16.4206393307      -0.0000000025     1.000000    0.00000928
  876      -16.4206393331      -0.0000000024     1.000000    0.00000922
  877      -16.4206393355      -0.0000000024     1.000000    0.00000916
  878      -16.4206393379      -0.0000000024     1.000000    0.00000910
  879      -16.4206393402      -0.0000000023     1.000000    0.00000904
  880      -16.4206393425      -0.0000000023     1.000000    0.00000898
  881      -16.4206393448      -0.0000000023     1.000000    0.00000892
  882      -16.4206393471      -0.0000000022     1.000000    0.00000886
  883      -16.4206393493      -0.0000000022     1.000000    0.00000881
  884      -16.4206393515      -0.0000000022     1.000000    0.00000875
  885      -16.4206393536      -0.0000000022     1.000000    0.00000869
  886      -16.4206393558      -0.0000000021     1.000000    0.00000864
  887      -16.4206393579      -0.0000000021     1.000000    0.00000858
  888      -16.4206393599      -0.0000000021     1.000000    0.00000852
  889      -16.4206393620      -0.0000000021     1.000000    0.00000847
  890      -16.4206393640      -0.0000000020     1.000000    0.00000841
  891      -16.4206393660      -0.0000000020     1.000000    0.00000836
  892      -16.4206393680      -0.0000000020     1.000000    0.00000830
  893      -16.4206393699      -0.0000000019     1.000000    0.00000825
  894      -16.4206393719      -0.0000000019     1.000000    0.00000820
  895      -16.4206393738      -0.0000000019     1.000000    0.00000814
  896      -16.4206393756      -0.0000000019     1.000000    0.00000809
  897      -16.4206393775      -0.0000000018     1.000000    0.00000804
  898      -16.4206393793      -0.0000000018     1.000000    0.00000798
  899      -16.4206393811      -0.0000000018     1.000000    0.00000793
  900      -16.4206393829      -0.0000000018     1.000000    0.00000788
  901      -16.4206393846      -0.0000000018     1.000000    0.00000783
  902      -16.4206393864      -0.0000000017     1.000000    0.00000778
  903      -16.4206393881      -0.0000000017     1.000000    0.00000773
  904      -16.4206393898      -0.0000000017     1.000000    0.00000767
  905      -16.4206393914      -0.0000000017     1.000000    0.00000762
  906      -16.4206393931      -0.0000000016     1.000000    0.00000757
  907      -16.4206393947      -0.0000000016     1.000000    0.00000752
  908      -16.4206393963      -0.0000000016     1.000000    0.00000748
  909      -16.4206393979      -0.0000000016     1.000000    0.00000743
  910      -16.4206393994      -0.0000000016     1.000000    0.00000738
  911      -16.4206394010      -0.0000000015     1.000000    0.00000733
  912      -16.4206394025      -0.0000000015     1.000000    0.00000728
  913      -16.4206394040      -0.0000000015     1.000000    0.00000723
  914      -16.4206394055      -0.0000000015     1.000000    0.00000719
  915      -16.4206394069      -0.0000000015     1.000000    0.00000714
  916      -16.4206394084      -0.0000000014     1.000000    0.00000709
  917      -16.4206394098      -0.0000000014     1.000000    0.00000704
  918      -16.4206394112      -0.0000000014     1.000000    0.00000700
  919      -16.4206394126      -0.0000000014     1.000000    0.00000695
  920      -16.4206394139      -0.0000000014     1.000000    0.00000691
  921      -16.4206394153      -0.0000000013     1.000000    0.00000686
  922      -16.4206394166      -0.0000000013     1.000000    0.00000681
  923      -16.4206394179      -0.0000000013     1.000000    0.00000677
  924      -16.4206394192      -0.0000000013     1.000000    0.00000673
  925      -16.4206394205      -0.0000000013     1.000000    0.00000668
  926      -16.4206394218      -0.0000000013     1.000000    0.00000664
  927      -16.4206394230      -0.0000000012     1.000000    0.00000659
  928      -16.4206394242      -0.0000000012     1.000000    0.00000655
  929      -16.4206394254      -0.0000000012     1.000000    0.00000651
  930      -16.4206394266      -0.0000000012     1.000000    0.00000646
  931      -16.4206394278      -0.0000000012     1.000000    0.00000642
  932      -16.4206394290      -0.0000000012     1.000000    0.00000638
  933      -16.4206394301      -0.0000000011     1.000000    0.00000634
  934      -16.4206394313      -0.0000000011     1.000000    0.00000629
  935      -16.4206394324      -0.0000000011     1.000000    0.00000625
  936      -16.4206394335      -0.0000000011     1.000000    0.00000621
  937      -16.4206394346      -0.0000000011     1.000000    0.00000617
  938      -16.4206394357      -0.0000000011     1.000000    0.00000613
  939      -16.4206394367      -0.0000000011     1.000000    0.00000609
  940      -16.4206394378      -0.0000000010     1.000000    0.00000605
  941      -16.4206394388      -0.0000000010     1.000000    0.00000601
  942      -16.4206394398      -0.0000000010     1.000000    0.00000597
  943      -16.4206394408      -0.0000000010     1.000000    0.00000593
  944      -16.4206394418      -0.0000000010     1.000000    0.00000589
  945      -16.4206394428      -0.0000000010     1.000000    0.00000585
  946      -16.4206394438      -0.0000000010     1.000000    0.00000581
  947      -16.4206394447      -0.0000000010     1.000000    0.00000577
  948      -16.4206394457      -0.0000000009     1.000000    0.00000573
  949      -16.4206394466      -0.0000000009     1.000000    0.00000570
  950      -16.4206394475      -0.0000000009     1.000000    0.00000566
  951      -16.4206394484      -0.0000000009     1.000000    0.00000562
  952      -16.4206394493      -0.0000000009     1.000000    0.00000558
  953      -16.4206394502      -0.0000000009     1.000000    0.00000555
  954      -16.4206394511      -0.0000000009     1.000000    0.00000551
  955      -16.4206394519      -0.0000000009     1.000000    0.00000547
  956      -16.4206394528      -0.0000000008     1.000000    0.00000544
  957      -16.4206394536      -0.0000000008     1.000000    0.00000540
  958      -16.4206394544      -0.0000000008     1.000000    0.00000536
  959      -16.4206394552      -0.0000000008     1.000000    0.00000533
  960      -16.4206394561      -0.0000000008     1.000000    0.00000529
  961      -16.4206394568      -0.0000000008     1.000000    0.00000526
  962      -16.4206394576      -0.0000000008     1.000000    0.00000522
  963      -16.4206394584      -0.0000000008     1.000000    0.00000519
  964      -16.4206394592      -0.0000000008     1.000000    0.00000515
  965      -16.4206394599      -0.0000000008     1.000000    0.00000512
  966      -16.4206394606      -0.0000000007     1.000000    0.00000508
  967      -16.4206394614      -0.0000000007     1.000000    0.00000505
  968      -16.4206394621      -0.0000000007     1.000000    0.00000502
  969      -16.4206394628      -0.0000000007     1.000000    0.00000498
  970      -16.4206394635      -0.0000000007     1.000000    0.00000495
  971      -16.4206394642      -0.0000000007     1.000000    0.00000492
  972      -16.4206394649      -0.0000000007     1.000000    0.00000488
  973      -16.4206394656      -0.0000000007     1.000000    0.00000485
  974      -16.4206394662      -0.0000000007     1.000000    0.00000482
  975      -16.4206394669      -0.0000000007     1.000000    0.00000479
  976      -16.4206394675      -0.0000000006     1.000000    0.00000475
  977      -16.4206394682      -0.0000000006     1.000000    0.00000472
  978      -16.4206394688      -0.0000000006     1.000000    0.00000469
  979      -16.4206394694      -0.0000000006     1.000000    0.00000466
  980      -16.4206394700      -0.0000000006     1.000000    0.00000463
  981      -16.4206394706      -0.0000000006     1.000000    0.00000460
  982      -16.4206394712      -0.0000000006     1.000000    0.00000457
  983      -16.4206394718      -0.0000000006     1.000000    0.00000453
  984      -16.4206394724      -0.0000000006     1.000000    0.00000450
  985      -16.4206394730      -0.0000000006     1.000000    0.00000447
  986      -16.4206394736      -0.0000000006     1.000000    0.00000444
  987      -16.4206394741      -0.0000000006     1.000000    0.00000441
  988      -16.4206394747      -0.0000000006     1.000000    0.00000438
  989      -16.4206394752      -0.0000000005     1.000000    0.00000436
  990      -16.4206394757      -0.0000000005     1.000000    0.00000433
  991      -16.4206394763      -0.0000000005     1.000000    0.00000430
  992      -16.4206394768      -0.0000000005     1.000000    0.00000427
  993      -16.4206394773      -0.0000000005     1.000000    0.00000424
  994      -16.4206394778      -0.0000000005     1.000000    0.00000421
  995      -16.4206394783      -0.0000000005     1.000000    0.00000418
  996      -16.4206394788      -0.0000000005     1.000000    0.00000415
  997      -16.4206394793      -0.0000000005     1.000000    0.00000413
  998      -16.4206394798      -0.0000000005     1.000000    0.00000410
  999      -16.4206394803      -0.0000000005     1.000000    0.00000407
 1000      -16.4206394807      -0.0000000005     1.000000    0.00000404

Total Energy:                      -16.4206394807 H         -446.8283 eV
Extrapolated to 0:                 -16.3611566089 H         -445.2097 eV

----------------------------------------------------------------------------------
 Solving CP-REKS equation for  1 state vector...
----------------------------------------------------------------------------------
  CG solver: Constructing Y initial guess
  CG solver: Iteration    1    eps =    0.040287666026
  CG solver: Iteration    2    eps =    0.003702563342
  CG solver: Iteration    3    eps =    0.001979941043
  CG solver: Iteration    4    eps =    0.003415991911
  CG solver: Iteration    5    eps =    0.003366681819
  CG solver: Iteration    6    eps =    0.002066607759
  CG solver: Iteration    7    eps =    0.002033500177
  CG solver: Iteration    8    eps =    0.005104803872
  CG solver: Iteration    9    eps =    0.000857578298
  CG solver: Iteration   10    eps =    0.000079853662
  CG solver: Iteration   11    eps =    0.000008585174
  CG solver: Iteration   12    eps =    0.000000737285
  CG solver: Iteration   13    eps =    0.000000048832
  CG solver: Iteration   14    eps =    0.000000010655
  CG solver: Iteration   15    eps =    0.000000001670
  Convergence reached in CG solver after   15 iterations
  CG solver: Calculating converged R, Z, Q2 matrix
----------------------------------------------------------------------------------

----------------------------------------------------------------------------------
 Solving CP-REKS equation for SI between  1 and  2 state vectors...
----------------------------------------------------------------------------------
  CG solver: Constructing Y initial guess
  CG solver: Iteration    1    eps =    0.001250545795
  CG solver: Iteration    2    eps =    0.000517599499
  CG solver: Iteration    3    eps =    0.000016158342
  CG solver: Iteration    4    eps =    0.000070538410
  CG solver: Iteration    5    eps =    0.000159201211
  CG solver: Iteration    6    eps =    0.000118007474
  CG solver: Iteration    7    eps =    0.000088761023
  CG solver: Iteration    8    eps =    0.000016206764
  CG solver: Iteration    9    eps =    0.000005460691
  CG solver: Iteration   10    eps =    0.000001966518
  CG solver: Iteration   11    eps =    0.000000374702
  CG solver: Iteration   12    eps =    0.000000100400
  CG solver: Iteration   13    eps =    0.000000014791
  CG solver: Iteration   14    eps =    0.000000001012
  Convergence reached in CG solver after   14 iterations
  CG solver: Calculating converged R, Z, Q2 matrix
----------------------------------------------------------------------------------

--------------------------------------------------
 Gradient Information
--------------------------------------------------
           1 st state (SSR)
     0.00000000     0.00000000     0.00000000
     0.00000000     0.00000000     0.00000000
     0.00000000     0.00000000     0.00000000
     0.00000000     0.00000000     0.00000000
     0.00000000     0.00000000     0.00000000
     0.00000000     0.00000000     0.00000000
     0.00000000     0.00000000     0.00000000
     0.00000000     0.00000000     0.00000000
     0.00000000     0.00000000     0.00000000
     0.00000000     0.00000000     0.00000000
     0.00000000     0.00000000     0.00000000
     0.00000000     0.00000000     0.00000000
     0.00000000     0.00000000     0.00000000
     0.00000000     0.00000000     0.00000000

           2 st state (SSR)
     0.00000000     0.00000000     0.00000000
     0.00000000     0.00000000     0.00000000
     0.00000000     0.00000000     0.00000000
     0.00000000     0.00000000     0.00000000
     0.00000000     0.00000000     0.00000000
     0.00000000     0.00000000     0.00000000
     0.00000000     0.00000000     0.00000000
     0.00000000     0.00000000     0.00000000
     0.00000000     0.00000000     0.00000000
     0.00000000     0.00000000     0.00000000
     0.00000000     0.00000000     0.00000000
     0.00000000     0.00000000     0.00000000
     0.00000000     0.00000000     0.00000000
     0.00000000     0.00000000     0.00000000
--------------------------------------------------
 Coupling Information
--------------------------------------------------
 between  1 and  2 states
--------------------------------------------------
 g vector - difference gradient
     0.11680869    -0.03573630     0.02894913
    -0.00718171     0.09246570    -0.03456188
    -0.12759533     0.06021340    -0.09937627
     0.11913686    -0.06995458     0.11830017
     0.11862575    -0.18408790    -0.00536373
    -0.17689631     0.26739972    -0.18118967
    -0.23401881    -0.34724281     0.03545944
     0.02431746     0.00403080    -0.00236466
    -0.02889604    -0.04221293     0.23269653
     0.45253284     0.14372669    -0.11868820
     0.02211819     0.03694754     0.12558214
    -0.40804501     0.10384490    -0.12704682
     0.11481604     0.00354771     0.07676608
     0.01427737    -0.03294192    -0.04916228

 h vector - derivative coupling
     0.01170956     0.00176000     0.00885179
     0.00193283    -0.01598434    -0.00045422
     0.00161608    -0.00123869     0.00110177
    -0.00600198     0.00522230    -0.00231397
     0.00109991     0.00027625    -0.00029702
    -0.01610385     0.02536442    -0.01427309
     0.00523720    -0.01288950    -0.00298907
     0.00284741    -0.00086688     0.00337780
    -0.00018912    -0.00021735     0.00248471
    -0.00733333    -0.00505056     0.00693764
     0.00052232     0.00025755     0.00127713
     0.00546975     0.00180905    -0.00242052
    -0.00033817     0.00058336    -0.00042410
    -0.00046861     0.00097438    -0.00085884

 G vector - GDV
     0.00000000     0.00000000     0.00000000
     0.00000000     0.00000000     0.00000000
     0.00000000     0.00000000     0.00000000
     0.00000000     0.00000000     0.00000000
     0.00000000     0.00000000     0.00000000
     0.00000000     0.00000000     0.00000000
     0.00000000     0.00000000     0.00000000
     0.00000000     0.00000000     0.00000000
     0.00000000     0.00000000     0.00000000
     0.00000000     0.00000000     0.00000000
     0.00000000     0.00000000     0.00000000
     0.00000000     0.00000000     0.00000000
     0.00000000     0.00000000     0.00000000
     0.00000000     0.00000000     0.00000000

 H vector - DCV - non-adiabatic coupling
     0.00000000     0.00000000     0.00000000
     0.00000000     0.00000000     0.00000000
     0.00000000     0.00000000     0.00000000
     0.00000000     0.00000000     0.00000000
     0.00000000     0.00000000     0.00000000
     0.00000000     0.00000000     0.00000000
     0.00000000     0.00000000     0.00000000
     0.00000000     0.00000000     0.00000000
     0.00000000     0.00000000     0.00000000
     0.00000000     0.00000000     0.00000000
     0.00000000     0.00000000     0.00000000
     0.00000000     0.00000000     0.00000000
     0.00000000     0.00000000     0.00000000
     0.00000000     0.00000000     0.00000000
--------------------------------------------------

WARNING!
-> SCC is NOT converged, maximal SCC iterations exceeded

--------------------------------------------------------------------------------
DFTB+ running times                          cpu [s]             wall clock [s]
--------------------------------------------------------------------------------
SCC                                    +     1.44  ( 79.7%)      1.45  ( 79.5%)
      Sparse to dense                        0.07  (  3.7%)      0.07  (  3.8%)
      Dense to sparse                        0.23  ( 12.6%)      0.24  ( 13.0%)
      Range separated Hamiltonian            0.12  (  6.6%)      0.12  (  6.8%)
  Density matrix creation                    0.14  (  7.9%)      0.13  (  7.3%)
  Force calculation                          0.37  ( 20.2%)      0.37  ( 20.2%)
--------------------------------------------------------------------------------
Missing                                +     0.37  ( 20.3%)      0.37  ( 20.5%)
Total                                  =     1.81  (100.0%)      1.82  (100.0%)
--------------------------------------------------------------------------------
