 Fermi distribution function

Calculation with static geometry


********************************************************************************
 iSCC Total electronic   Diff electronic      SCC error    
   10   -0.53897775E+01   -0.18074431E-11    0.11123543E-06
********************************************************************************

 Total charge:     1.00000000

 Atomic gross charges (e)
 Atom           Charge
    1       0.15878114
    2      -0.06124234
    3       0.13779273
    4       0.27632310
    5       0.27909087
    6       0.20925450

Nr. of electrons (up):     12.00000000
Atom populations (up)
 Atom       Population
    1       3.84121886
    2       5.06124234
    3       0.86220727
    4       0.72367690
    5       0.72090913
    6       0.79074550

l-shell populations (up)
 Atom Sh.   l       Population
    1   1   0       1.32316271
    1   2   1       2.51805615
    2   1   0       1.42741485
    2   2   1       3.63382749
    3   1   0       0.86220727
    4   1   0       0.72367690
    5   1   0       0.72090913
    6   1   0       0.79074550

Orbital populations (up)
 Atom Sh.   l   m       Population  Label
    1   1   0   0       1.32316271  s
    1   2   1  -1       0.60420942  p_y
    1   2   1   0       0.87826536  p_z
    1   2   1   1       1.03558137  p_x
    2   1   0   0       1.42741485  s
    2   2   1  -1       1.32465316  p_y
    2   2   1   0       1.10028560  p_z
    2   2   1   1       1.20888873  p_x
    3   1   0   0       0.86220727  s
    4   1   0   0       0.72367690  s
    5   1   0   0       0.72090913  s
    6   1   0   0       0.79074550  s

Fermi level:                        -0.4960624633 H          -13.4985 eV
Band energy:                        -8.9069829260 H         -242.3713 eV
TS:                                  0.0000000000 H            0.0000 eV
Band free energy (E-TS):            -8.9069829260 H         -242.3713 eV
Extrapolated E(0K):                 -8.9069829260 H         -242.3713 eV
Input / Output electrons (q):     12.0000000000     12.0000000000

Energy H0:                          -5.5232426219 H         -150.2951 eV
Energy SCC:                          0.1334650802 H            3.6318 eV
Total Electronic energy:            -5.3897775417 H         -146.6633 eV
Repulsive energy:                    0.1866190242 H            5.0782 eV
Total energy:                       -5.2031585175 H         -141.5851 eV
Extrapolated to 0:                  -5.2031585175 H         -141.5851 eV
Total Mermin free energy:           -5.2031585175 H         -141.5851 eV
Force related energy:               -5.2031585175 H         -141.5851 eV

SCC converged

Excitation Energy:                   0.1155013498 H            3.1430 eV

Total Forces
    1     -0.003339142822      0.017520170843      0.041230641308
    2     -0.020095649299     -0.013529126828     -0.042407460908
    3     -0.001576920383     -0.008979896643     -0.001196099058
    4      0.001217149919      0.007878100919      0.004995199704
    5      0.016573553373     -0.002479519912     -0.000510267269
    6      0.007221009211     -0.000409728379     -0.002112013777

Maximal derivative component:        0.424075E-01 au


