    14
  Step:   600            Position(A)                                  Velocity(au)
C        -5.91798399    -0.81993485    -0.21949750    -0.00002027    -0.00050174    -0.00032019
C        -4.74275486    -0.63597065     0.46168901    -0.00005578    -0.00007178    -0.00003524
H        -5.88960995    -0.46718179    -1.33986741     0.00000975     0.00243410     0.00229070
H        -6.84297800    -1.22935251     0.11479795     0.00089952    -0.00054353    -0.00246924
H        -4.41265685    -1.05878618     1.46170562    -0.00024620    -0.00209893    -0.00094145
C        -3.88834598     0.35575108    -0.21344493    -0.00055765     0.00064344     0.00038365
C        -2.47381889     0.56919086    -0.01371747     0.00027312     0.00007429     0.00080993
H        -4.44838093     1.38284810    -0.57693888    -0.00151658     0.00096516     0.00202144
H        -2.00600437    -0.36027340     0.34320630     0.00155930     0.00109786     0.00040960
C        -1.93939550     1.75013743     0.14785190    -0.00000213    -0.00009184    -0.00076714
H        -2.26505079     2.65954578     0.45789602     0.00028626    -0.00120730    -0.00204244
N        -0.58339941     1.71343284     0.18016372     0.00026990     0.00003520    -0.00007264
H         0.06846867     2.50878171     0.23260180     0.00038110    -0.00195176    -0.00131349
H        -0.11307589     0.86821041    -0.12361550    -0.00080142     0.00019140     0.00220819
