     6
  Step:   300            Position(A)                                  Velocity(au)
C        -0.06438900     0.01428125     0.01580035     0.00002829    -0.00007474     0.00000501
N        -0.01568153    -0.05911739     1.30092048    -0.00014944     0.00000067    -0.00001569
H         0.19382778     0.96279730    -0.45051465     0.00059818     0.00004280     0.00078503
H        -0.00166900    -0.94574283     1.81663229     0.00144628     0.00012136     0.00007586
H        -0.06303296     0.82270766     1.82074412     0.00018195     0.00030479    -0.00046270
H        -0.35686491    -0.85818599    -0.56116387    -0.00048682     0.00041243    -0.00023986
