     6
  Step:     0            Position(A)                                  Velocity(au)
C        -0.03732411     0.02108469     0.02949907    -0.00002524     0.00008144     0.00027175
N        -0.04074750    -0.05786652     1.29234313     0.00015736    -0.00008537    -0.00023720
H         0.88261892    -0.05049294    -0.49051678     0.00021910    -0.00016442    -0.00033785
H         0.82426464    -0.09119356     1.78809076    -0.00152111     0.00028152    -0.00028574
H        -0.94218526    -0.03221891     1.84924805    -0.00061745     0.00053349     0.00032681
H        -0.96663838     0.05701449    -0.56514818     0.00003357    -0.00043464     0.00035474
     6
  Step:     1            Position(A)                                  Velocity(au)
C        -0.03749486     0.02154964     0.03081912    -0.00003681     0.00008876     0.00020942
N        -0.03993808    -0.05834587     1.29121216     0.00013694    -0.00009004    -0.00017569
H         0.88434172    -0.05144993    -0.49283194     0.00040479    -0.00018534    -0.00050496
H         0.81633670    -0.08965082     1.78691156    -0.00135967     0.00028234    -0.00013437
H        -0.94526649    -0.02930694     1.85095622    -0.00050241     0.00053146     0.00029243
H        -0.96656489     0.05463795    -0.56337575    -0.00000686    -0.00043484     0.00029282
     6
  Step:     2            Position(A)                                  Velocity(au)
C        -0.03772676     0.02205545     0.03178961    -0.00004748     0.00009640     0.00014426
N        -0.03924979    -0.05885129     1.29042151     0.00011343    -0.00009495    -0.00011311
H         0.88704622    -0.05252006    -0.49603969     0.00057633    -0.00020573    -0.00066329
H         0.80939344    -0.08810551     1.78662111    -0.00116417     0.00028280     0.00003782
H        -0.94768026    -0.02640618     1.85244640    -0.00037522     0.00052968     0.00024831
H        -0.96671338     0.05225855    -0.56194548    -0.00004732    -0.00043593     0.00022989
     6
  Step:     3            Position(A)                                  Velocity(au)
C        -0.03801400     0.02260373     0.03239654    -0.00005697     0.00010433     0.00007679
N        -0.03869784    -0.05938410     1.28997534     0.00008748    -0.00010013    -0.00005001
H         0.89064353    -0.05369947    -0.50008457     0.00073020    -0.00022532    -0.00081066
H         0.80360717    -0.08655862     1.78732511    -0.00094052     0.00028332     0.00022751
H        -0.94936925    -0.02351526     1.85367139    -0.00023911     0.00052826     0.00019666
H        -0.96708226     0.04987129    -0.56086200    -0.00008724    -0.00043804     0.00016624
     6
  Step:     4            Position(A)                                  Velocity(au)
C        -0.03834949     0.02319583     0.03262899    -0.00006509     0.00011249     0.00000757
N        -0.03829360    -0.05994569     1.28987493     0.00005982    -0.00010556     0.00001316
H         0.89502764    -0.05498293    -0.50490049     0.00086366    -0.00024387    -0.00094532
H         0.79911314    -0.08500869     1.78910791    -0.00069593     0.00028434     0.00043040
H        -0.95029383    -0.02063209     1.85459600    -0.00009720     0.00052730     0.00013961
H        -0.96766700     0.04747063    -0.56012836    -0.00012614    -0.00044120     0.00010211
     6
  Step:     5            Position(A)                                  Velocity(au)
C        -0.03872515     0.02383280     0.03247929    -0.00007166     0.00012081    -0.00006279
N        -0.03804424    -0.06053749     1.29011914     0.00003124    -0.00011125     0.00007598
H         0.90007988    -0.05636402    -0.51041322     0.00097466    -0.00026115    -0.00106593
H         0.79600344    -0.08345192     1.79202763    -0.00043864     0.00028622     0.00064126
H        -0.95043130    -0.01775397     1.85519677     0.00004745     0.00052685     0.00007927
H        -0.96846044     0.04505075    -0.55974635    -0.00016352    -0.00044540     0.00003770
     6
  Step:     6            Position(A)                                  Velocity(au)
C        -0.03913220     0.02451531     0.03194324    -0.00007658     0.00012920    -0.00013360
N        -0.03795243    -0.06116082     1.29070473     0.00000257    -0.00011717     0.00013803
H         0.90567290    -0.05783520    -0.51654257     0.00106177    -0.00027693    -0.00117139
H         0.79432228    -0.08188257     1.79611180    -0.00017768     0.00028926     0.00085415
H        -0.94977555    -0.01487786     1.85546183     0.00019178     0.00052692     0.00001778
H        -0.96945297     0.04260598    -0.55971662    -0.00019893    -0.00045055    -0.00002677
     6
  Step:     7            Position(A)                                  Velocity(au)
C        -0.03956135     0.02524356     0.03102049    -0.00007976     0.00013756    -0.00020409
N        -0.03801619    -0.06181685     1.29162634    -0.00002532    -0.00012325     0.00019889
H         0.91167355    -0.05938783    -0.52320379     0.00112407    -0.00029098    -0.00126085
H         0.79406335    -0.08029345     1.80135425     0.00007761     0.00029364     0.00106259
H        -0.94833727    -0.01200052     1.85539086     0.00033256     0.00052749    -0.00004272
H        -0.97063263     0.04013111    -0.56003865    -0.00023192    -0.00045651    -0.00009103
     6
  Step:     8            Position(A)                                  Velocity(au)
C        -0.04000303     0.02601715     0.02971495    -0.00008116     0.00014574    -0.00027337
N        -0.03822884    -0.06250644     1.29287627    -0.00005155    -0.00012941     0.00025804
H         0.91794563    -0.06101219    -0.53030868     0.00116112    -0.00030309    -0.00133365
H         0.79516960    -0.07867658     1.80771328     0.00031798     0.00029942     0.00125989
H        -0.94614463    -0.00911872     1.85499545     0.00046640     0.00052852    -0.00009995
H        -0.97198508     0.03762180    -0.56071047    -0.00026200    -0.00046304    -0.00015473
     6
  Step:     9            Position(A)                                  Velocity(au)
C        -0.04044754     0.02683497     0.02803541    -0.00008076     0.00015360    -0.00034045
N        -0.03857908    -0.06322999     1.29444405    -0.00007529    -0.00013556     0.00031487
H         0.92435245    -0.06269746    -0.53776662     0.00117291    -0.00031303    -0.00138927
H         0.79753552    -0.07702396     1.81511167     0.00053481     0.00030650     0.00143951
H        -0.94324441    -0.00622939     1.85429944     0.00058966     0.00052995    -0.00015160
H        -0.97349354     0.03507494    -0.56172825    -0.00028869    -0.00046987    -0.00021743
     6
  Step:    10            Position(A)                                  Velocity(au)
C        -0.04088528     0.02769505     0.02599595    -0.00007861     0.00016096    -0.00040423
N        -0.03905126    -0.06398728     1.29631584    -0.00009575    -0.00014156     0.00036863
H         0.93075842    -0.06443167    -0.54548499     0.00115981    -0.00032056    -0.00142734
H         0.80101185    -0.07532840     1.82343837     0.00072057     0.00031466     0.00159541
H        -0.93970326    -0.00332960     1.85333940     0.00069850     0.00053174    -0.00019527
H        -0.97513869     0.03248900    -0.56308567    -0.00031149    -0.00047666    -0.00027856
     6
  Step:    11            Position(A)                                  Velocity(au)
C        -0.04130684     0.02859452     0.02361645    -0.00007475     0.00016764    -0.00046361
N        -0.03962582    -0.06477743     1.29847376    -0.00011228    -0.00014726     0.00041850
H         0.93703112    -0.06620173    -0.55336988     0.00112267    -0.00032549    -0.00144772
H         0.80541253    -0.07358420     1.83255214     0.00086922     0.00032355     0.00172245
H        -0.93560858    -0.00041659     1.85216482     0.00078906     0.00053386    -0.00022860
H        -0.97689864     0.02986423    -0.56477335    -0.00032993    -0.00048307    -0.00033744
     6
  Step:    12            Position(A)                                  Velocity(au)
C        -0.04170325     0.02952952     0.02092277    -0.00006930     0.00017346    -0.00051744
N        -0.04027988    -0.06559875     1.30089540    -0.00012432    -0.00015253     0.00046359
H         0.94304369    -0.06799351    -0.56132722     0.00106282    -0.00032766    -0.00145052
H         0.81052366    -0.07178781     1.84228697     0.00097664     0.00033274     0.00181675
H        -0.93106867     0.00251241     1.85083783     0.00085756     0.00053635    -0.00024937
H        -0.97874902     0.02720285    -0.56677821    -0.00034357    -0.00048873    -0.00039331
     6
  Step:    13            Position(A)                                  Velocity(au)
C        -0.04206616     0.03049522     0.01794663    -0.00006240     0.00017826    -0.00056470
N        -0.04098806    -0.06644877     1.30355352    -0.00013152    -0.00015722     0.00050303
H         0.94867685    -0.06979207    -0.56926384     0.00098202    -0.00032696    -0.00143616
H         0.81611394    -0.06993824     1.85245906     0.00104069     0.00034174     0.00187585
H        -0.92621190     0.00546038     1.84943232     0.00090066     0.00053926    -0.00025565
H        -0.98066324     0.02450905    -0.56908302    -0.00035206    -0.00049330    -0.00044538
     6
  Step:    14            Position(A)                                  Velocity(au)
C        -0.04238804     0.03148592     0.01472512    -0.00005423     0.00018190    -0.00060453
N        -0.04172336    -0.06732427     1.30641619    -0.00013372    -0.00016122     0.00053603
H         0.95382134    -0.07158191    -0.57708913     0.00088255    -0.00032335    -0.00140546
H         0.82194524    -0.06803724     1.86287446     0.00106132     0.00035006     0.00189887
H        -0.92118392     0.00843077     1.84803201     0.00091574     0.00054272    -0.00024601
H        -0.98261287     0.02178886    -0.57166622    -0.00035517    -0.00049651    -0.00049285
     6
  Step:    15            Position(A)                                  Velocity(au)
C        -0.04266238     0.03249519     0.01129978    -0.00004501     0.00018428    -0.00063626
N        -0.04245830    -0.06822139     1.30944730    -0.00013094    -0.00016443     0.00056197
H         0.95838061    -0.07334739    -0.58471707     0.00076713    -0.00031690    -0.00135963
H         0.82778335    -0.06608924     1.87333747     0.00104044     0.00035728     0.00188655
H        -0.91614318     0.01142771     1.84672742     0.00090127     0.00054691    -0.00021967
H        -0.98456838     0.01904986    -0.57450194    -0.00035281    -0.00049814    -0.00053501
     6
  Step:    16            Position(A)                                  Velocity(au)
C        -0.04288389     0.03351611     0.00771536    -0.00003498     0.00018536    -0.00065955
N        -0.04316598    -0.06913578     1.31260754    -0.00012345    -0.00016680     0.00058046
H         0.96227296    -0.07507327    -0.59206833     0.00063880    -0.00030776    -0.00130026
H         0.83340797    -0.06410106     1.88365890     0.00098162     0.00036303     0.00184107
H        -0.91125452     0.01445615     1.84561184     0.00085700     0.00055201    -0.00017668
H        -0.98649985     0.01630081    -0.57756052    -0.00034506    -0.00049807    -0.00057130
     6
  Step:    17            Position(A)                                  Velocity(au)
C        -0.04304856     0.03454155     0.00401827    -0.00002439     0.00018515    -0.00067435
N        -0.04382118    -0.07006284     1.31585569    -0.00011167    -0.00016832     0.00059140
H         0.96543304    -0.07674512    -0.59907219     0.00050078    -0.00029617    -0.00122931
H         0.83862064    -0.06208131     1.89366321     0.00088972     0.00036710     0.00176586
H        -0.90668174     0.01752194     1.84477683     0.00078418     0.00055821    -0.00011793
H        -0.98837791     0.01355110    -0.58080921    -0.00033217    -0.00049630    -0.00060134
     6
  Step:    18            Position(A)                                  Velocity(au)
C        -0.04315377     0.03556448     0.00025486    -0.00001351     0.00018373    -0.00068096
N        -0.04440136    -0.07099795     1.31915030    -0.00009620    -0.00016904     0.00059499
H         0.96781319    -0.07834990    -0.60566852     0.00035640    -0.00028248    -0.00114902
H         0.84325117    -0.06003979     1.90319497     0.00077044     0.00036937     0.00166528
H        -0.90257901     0.02063177     1.84430710     0.00068555     0.00056569    -0.00004522
H        -0.99017467     0.01081015    -0.58421330    -0.00031453    -0.00049292    -0.00062499
     6
  Step:    19            Position(A)                                  Velocity(au)
C        -0.04319832     0.03657828    -0.00353036    -0.00000257     0.00018123    -0.00067997
N        -0.04488756    -0.07193665     1.32245135    -0.00007777    -0.00016902     0.00059177
H         0.96938384    -0.07987647    -0.61180936     0.00020887    -0.00026708    -0.00106177
H         0.84716124    -0.05798672     1.91212329     0.00062995     0.00036991     0.00154433
H        -0.89908219     0.02379279     1.84427556     0.00056527     0.00057457     0.00003891
H        -0.99186459     0.00808698    -0.58773744    -0.00029269    -0.00048814    -0.00064236
     6
  Step:    20            Position(A)                                  Velocity(au)
C        -0.04318228     0.03757708    -0.00729635     0.00000822     0.00017782    -0.00067223
N        -0.04526502    -0.07287495     1.32572198    -0.00005718    -0.00016839     0.00058249
H         0.97013270    -0.08131590    -0.61745977     0.00006109    -0.00025043    -0.00097004
H         0.85024691    -0.05593182     1.92034505     0.00047441     0.00036891     0.00140825
H        -0.89630153     0.02701253     1.84473916     0.00042854     0.00058494     0.00013131
H        -0.99342510     0.00538925    -0.59134686    -0.00026727    -0.00048229    -0.00065378
     6
  Step:    21            Position(A)                                  Velocity(au)
C        -0.04310688     0.03855596    -0.01100682     0.00001868     0.00017370    -0.00065875
N        -0.04552356    -0.07380944     1.32892977    -0.00003526    -0.00016727     0.00056812
H         0.97006326    -0.08266174    -0.62259809    -0.00008444    -0.00023299    -0.00087616
H         0.85243765    -0.05388368     1.92778579     0.00030958     0.00036667     0.00126219
H        -0.89431600     0.03029844     1.84573600     0.00028122     0.00059679     0.00022855
H        -0.99483711     0.00272296    -0.59500879    -0.00023891    -0.00047575    -0.00065981
     6
  Step:    22            Position(A)                                  Velocity(au)
C        -0.04297433     0.03951114    -0.01463116     0.00002998     0.00017089    -0.00069660
N        -0.04565758    -0.07473746     1.33204775    -0.00001389    -0.00016894     0.00059392
H         0.96919247    -0.08391011    -0.62721539    -0.00025570    -0.00016956    -0.00073848
H         0.85369399    -0.05184910     1.93439891     0.00012537     0.00032749     0.00109300
H        -0.89317028     0.03365754     1.84728391     0.00015292     0.00064610     0.00030706
H        -0.99608521     0.00009200    -0.59869354    -0.00018678    -0.00049257    -0.00061426
     6
  Step:    23            Position(A)                                  Velocity(au)
C        -0.04277280     0.04046024    -0.01876943     0.00004203     0.00016927    -0.00078484
N        -0.04567832    -0.07569207     1.33554818     0.00000640    -0.00017315     0.00065952
H         0.96721382    -0.08455124    -0.63082738    -0.00045033    -0.00007420    -0.00055990
H         0.85383475    -0.05023424     1.93996563    -0.00007344     0.00026620     0.00090346
H        -0.89261195     0.03749828     1.84915772     0.00004671     0.00071484     0.00036325
H        -0.99691844    -0.00276603    -0.60185383    -0.00011256    -0.00051777    -0.00051953
     6
  Step:    24            Position(A)                                  Velocity(au)
C        -0.04250567     0.04139875    -0.02338302     0.00005331     0.00016684    -0.00086444
N        -0.04558626    -0.07666824     1.33940209     0.00002621    -0.00017646     0.00071844
H         0.96417078    -0.08473751    -0.63345895    -0.00063425     0.00000213    -0.00038791
H         0.85287503    -0.04888065     1.94447355    -0.00026611     0.00022415     0.00071537
H        -0.89264941     0.04162876     1.85133454    -0.00005879     0.00075998     0.00041547
H        -0.99734040    -0.00568168    -0.60448684    -0.00004031    -0.00052210    -0.00042597
     6
  Step:    25            Position(A)                                  Velocity(au)
C        -0.04217793     0.04232192    -0.02841530     0.00006362     0.00016358    -0.00093347
N        -0.04538583    -0.07766112     1.34356490     0.00004492    -0.00017891     0.00076907
H         0.96013655    -0.08452747    -0.63515591    -0.00080326     0.00006975    -0.00022561
H         0.85086533    -0.04773310     1.94794814    -0.00044709     0.00018986     0.00053421
H        -0.89326791     0.04597856     1.85379373    -0.00015977     0.00079494     0.00046333
H        -0.99736819    -0.00859186    -0.60660701     0.00002786    -0.00051751    -0.00033603
     6
  Step:    26            Position(A)                                  Velocity(au)
C        -0.04179533     0.04322520    -0.03380578     0.00007284     0.00015955    -0.00099164
N        -0.04508469    -0.07866588     1.34798926     0.00006198    -0.00018051     0.00081125
H         0.95520197    -0.08395866    -0.63597799    -0.00095457     0.00013133    -0.00007526
H         0.84788300    -0.04676078     1.95043836    -0.00061195     0.00016024     0.00036388
H        -0.89443329     0.05050471     1.85650794    -0.00025301     0.00082322     0.00050566
H        -0.99702929    -0.01145999    -0.60823884     0.00009025    -0.00050756    -0.00025134
     6
  Step:    27            Position(A)                                  Velocity(au)
C        -0.04136413     0.04410442    -0.03949362     0.00008091     0.00015486    -0.00103914
N        -0.04469338    -0.07967774     1.35262797     0.00007693    -0.00018130     0.00084521
H         0.94947232    -0.08306027    -0.63599667    -0.00108592     0.00018797     0.00006123
H         0.84402880    -0.04594299     1.95201330    -0.00075684     0.00013393     0.00020769
H        -0.89609452     0.05517532     1.85944284    -0.00033582     0.00084632     0.00054135
H        -0.99635999    -0.01426217    -0.60941495     0.00014542    -0.00049410    -0.00017320
     6
  Step:    28            Position(A)                                  Velocity(au)
C        -0.04089101     0.04495602    -0.04541975     0.00008775     0.00014961    -0.00107648
N        -0.04422488    -0.08069219     1.35743574     0.00008938    -0.00018135     0.00087143
H         0.94306517    -0.08185784    -0.63529361    -0.00119528     0.00024016     0.00018219
H         0.83942411    -0.04526392     1.95275964    -0.00087840     0.00011034     0.00006853
H        -0.89818666     0.05996364     1.86255838    -0.00040608     0.00086507     0.00056961
H        -0.99540398    -0.01698235    -0.61017463     0.00019222    -0.00047828    -0.00010264
     6
  Step:    29            Position(A)                                  Velocity(au)
C        -0.04038315     0.04577703    -0.05152837     0.00009327     0.00014393    -0.00110435
N        -0.04369419    -0.08170513     1.36237029     0.00009900    -0.00018072     0.00089052
H         0.93610949    -0.08037539    -0.63395980    -0.00128077     0.00028813     0.00028616
H         0.83420859    -0.04470937     1.95277940    -0.00097368     0.00008923    -0.00005119
H        -0.90063440     0.06484658     1.86581085    -0.00046226     0.00087998     0.00058993
H        -0.99421106    -0.01960919    -0.61056239     0.00022970    -0.00046093    -0.00004042
     6
  Step:    30            Position(A)                                  Velocity(au)
C        -0.03984818     0.04656528    -0.05776761     0.00009739     0.00013793    -0.00112343
N        -0.04311799    -0.08271288     1.36739274     0.00010553    -0.00017951     0.00090307
H         0.92874471    -0.07863618    -0.63209403    -0.00134058     0.00033199     0.00037187
H         0.82853725    -0.04426624     1.95218730    -0.00104015     0.00007045    -0.00014944
H        -0.90335521     0.06980274     1.86915441    -0.00050336     0.00089127     0.00060208
H        -0.99283565    -0.02213606    -0.61062656     0.00025716    -0.00044273     0.00001291
     6
  Step:    31            Position(A)                                  Velocity(au)
C        -0.03929427     0.04731926    -0.06408964     0.00009999     0.00013173    -0.00113434
N        -0.04251421    -0.08371225     1.37246768     0.00010879    -0.00017776     0.00090960
H         0.92112022    -0.07666332    -0.62980187    -0.00137281     0.00037171     0.00043817
H         0.82257844    -0.04392167     1.95110845    -0.00107558     0.00005398    -0.00022462
H        -0.90626260     0.07481202     1.87254280    -0.00052893     0.00089909     0.00060607
H        -0.99133567    -0.02455949    -0.61041803     0.00027406    -0.00042415     0.00005701
     6
  Step:    32            Position(A)                                  Velocity(au)
C        -0.03873022     0.04803807    -0.07045018     0.00010096     0.00012540    -0.00113759
N        -0.04190166    -0.08470039     1.37756263     0.00010863    -0.00017554     0.00091054
H         0.91339587    -0.07448028    -0.62719504    -0.00137560     0.00040718     0.00048405
H         0.81651167    -0.04366267     1.94967592    -0.00107818     0.00003987    -0.00027554
H        -0.90926891     0.07985506     1.87593065    -0.00053893     0.00090348     0.00060213
H        -0.98977149    -0.02687828    -0.60998912     0.00028004    -0.00040550     0.00009172
     6
  Step:    33            Position(A)                                  Velocity(au)
C        -0.03816552     0.04872126    -0.07680787     0.00010017     0.00011903    -0.00113362
N        -0.04129967    -0.08567473     1.38264750     0.00010501    -0.00017286     0.00090624
H         0.90574111    -0.07211108    -0.62439017    -0.00134725     0.00043827     0.00050872
H         0.81052446    -0.04347596     1.94802790    -0.00104684     0.00002815    -0.00030157
H        -0.91228776     0.08491283     1.87927456    -0.00053377     0.00090444     0.00059065
H        -0.98820481    -0.02909292    -0.60939264     0.00027496    -0.00038702     0.00011701
     6
  Step:    34            Position(A)                                  Velocity(au)
C        -0.03761035     0.04936879    -0.08312387     0.00009750     0.00011266    -0.00112284
N        -0.04072761    -0.08663296     1.38769424     0.00009797    -0.00016978     0.00089703
H         0.89833383    -0.06958043    -0.62150760    -0.00128654     0.00046489     0.00051170
H         0.80480822    -0.04334796     1.94630441    -0.00098132     0.00001888    -0.00030271
H        -0.91523635     0.08996651     1.88253407    -0.00051429     0.00090201     0.00057226
H        -0.98669747    -0.03120506    -0.60868098     0.00025891    -0.00036888     0.00013303
     6
  Step:    35            Position(A)                                  Velocity(au)
C        -0.03707542     0.04998090    -0.08936170     0.00009289     0.00010636    -0.00110572
N        -0.04020431    -0.08757299     1.39267671     0.00008766    -0.00016634     0.00088330
H         0.89135704    -0.06691339    -0.61866913    -0.00119303     0.00048700     0.00049302
H         0.79955282    -0.04326486     1.94464343    -0.00088263     0.00001207    -0.00027979
H        -0.91803771     0.09499771     1.88567273    -0.00048169     0.00089634     0.00054776
H        -0.98531010    -0.03321720    -0.60790528     0.00023225    -0.00035126     0.00014010
     6
  Step:    36            Position(A)                                  Velocity(au)
C        -0.03657166     0.05055813    -0.09548765     0.00008634     0.00010018    -0.00108284
N        -0.03974738    -0.08849297     1.39757102     0.00007438    -0.00016260     0.00086552
H         0.88499376    -0.06413491    -0.61599486    -0.00106734     0.00050474     0.00045332
H         0.79493898    -0.04321298     1.94317586    -0.00075313     0.00000767    -0.00023455
H        -0.92062249     0.09998913     1.88865897    -0.00043754     0.00088772     0.00051812
H        -0.98410051    -0.03513273    -0.60711439     0.00019564    -0.00033430     0.00013871
     6
  Step:    37            Position(A)                                  Velocity(au)
C        -0.03610985     0.05110126    -0.10147127     0.00007793     0.00009416    -0.00105490
N        -0.03937255    -0.08939139     1.40235593     0.00005851    -0.00015862     0.00084424
H         0.87942085    -0.06126886    -0.61359954    -0.00091133     0.00051836     0.00039401
H         0.79113048    -0.04317913     1.94202044    -0.00059662     0.00000555    -0.00016962
H        -0.92293078     0.10492523     1.89146697    -0.00038364     0.00087656     0.00048444
H        -0.98312225    -0.03695574    -0.60635408     0.00014999    -0.00031814     0.00012950
     6
  Step:    38            Position(A)                                  Velocity(au)
C        -0.03570008     0.05161124    -0.10728614     0.00006782     0.00008832    -0.00102269
N        -0.03909300    -0.09026710     1.40701342     0.00004057    -0.00015448     0.00082011
H         0.87480108    -0.05833730    -0.61158813    -0.00072817     0.00052840     0.00031717
H         0.78826611    -0.04315096     1.94127874    -0.00041819     0.00000549    -0.00008849
H        -0.92491326     0.10979300     1.89407715    -0.00032200     0.00086340     0.00044788
H        -0.98242301    -0.03869094    -0.60566596     0.00009644    -0.00030289     0.00011327
     6
  Step:    39            Position(A)                                  Velocity(au)
C        -0.03535125     0.05208909    -0.11291024     0.00005628     0.00008266    -0.00098704
N        -0.03891877    -0.09111932     1.41152902     0.00002116    -0.00015025     0.00079379
H         0.87127621    -0.05535862    -0.61005197    -0.00052225     0.00053556     0.00022559
H         0.78645301    -0.04311769     1.94103071    -0.00022398     0.00000720     0.00000470
H        -0.92653241     0.11458252     1.89647658    -0.00025474     0.00084885     0.00040962
H        -0.98204355    -0.04034358    -0.60508713     0.00003634    -0.00028863     0.00009089
     6
  Step:    40            Position(A)                                  Velocity(au)
C        -0.03507055     0.05253581    -0.11832626     0.00004366     0.00007718    -0.00094880
N        -0.03885637    -0.09194766     1.41589202     0.00000091    -0.00014599     0.00076594
H         0.86895967    -0.05234703    -0.60906495    -0.00029915     0.00054065     0.00012263
H         0.78576083    -0.04307046     1.94133131    -0.00002098     0.00001028     0.00010532
H        -0.92776254     0.11928743     1.89865883    -0.00018394     0.00083354     0.00037080
H        -0.98201651    -0.04191927    -0.60464936    -0.00002880    -0.00027540     0.00006334
     6
  Step:    41            Position(A)                                  Velocity(au)
C        -0.03486300     0.05295228    -0.12352167     0.00003035     0.00007184    -0.00090876
N        -0.03890855    -0.09275208     1.42009538    -0.00001948    -0.00014175     0.00073717
H         0.86793049    -0.04931191    -0.60868045    -0.00006533     0.00054456     0.00001211
H         0.78621836    -0.04300274     1.94220859     0.00018348     0.00001430     0.00020856
H        -0.92858958     0.12390495     1.90062367    -0.00011160     0.00081811     0.00033246
H        -0.98236569    -0.04342371    -0.60437878    -0.00009739    -0.00026320     0.00003162
     6
  Step:    42            Position(A)                                  Velocity(au)
C        -0.03473117     0.05333917    -0.12848836     0.00001682     0.00006660    -0.00086766
N        -0.03907426    -0.09353277     1.42413539    -0.00003938    -0.00013757     0.00070802
H         0.86822910    -0.04625754    -0.60892952     0.00017215     0.00054817    -0.00010195
H         0.78781255    -0.04291055     1.94366349     0.00038205     0.00001880     0.00030969
H        -0.92901053     0.12843586     1.90237657    -0.00003964     0.00080314     0.00029556
H        -0.98310562    -0.04486249    -0.60429572    -0.00016776    -0.00025197    -0.00000321
     6
  Step:    43            Position(A)                                  Velocity(au)
C        -0.03467497     0.05369688    -0.13322228     0.00000353     0.00006140    -0.00082614
N        -0.03934878    -0.09429015     1.42801124    -0.00005813    -0.00013348     0.00067894
H         0.86985512    -0.04318321    -0.60982026     0.00040599     0.00055233    -0.00021549
H         0.79048978    -0.04279252     1.94567100     0.00056780     0.00002332     0.00040431
H        -0.92903276     0.13288423     1.90392808     0.00003019     0.00078917     0.00026093
H        -0.98424129    -0.04624080    -0.60441469    -0.00023820    -0.00024162    -0.00004015
     6
  Step:    44            Position(A)                                  Velocity(au)
C        -0.03469168     0.05402552    -0.13772285    -0.00000905     0.00005620    -0.00078477
N        -0.03972406    -0.09502477     1.43172443    -0.00007520    -0.00012949     0.00065026
H         0.87276715    -0.04008372    -0.61133823     0.00062903     0.00055775    -0.00032463
H         0.79415929    -0.04264988     1.94818278     0.00073452     0.00002742     0.00048855
H        -0.92867307     0.13725710     1.90529317     0.00009628     0.00077669     0.00022930
H        -0.98576821    -0.04756327    -0.60474453    -0.00030703    -0.00023203    -0.00007820
     6