 Fermi distribution function

Calculation with static geometry


********************************************************************************
 iSCC Total electronic   Diff electronic      SCC error    
   13   -0.53154631E+01   -0.13189450E-11    0.51798717E-07
********************************************************************************

 Total charge:     1.00000000

 Atomic gross charges (e)
 Atom           Charge
    1       0.30920621
    2      -0.20347865
    3       0.17307489
    4       0.28438331
    5       0.26734450
    6       0.16946975

Nr. of electrons (up):     12.00000000
Atom populations (up)
 Atom       Population
    1       3.69079379
    2       5.20347865
    3       0.82692511
    4       0.71561669
    5       0.73265550
    6       0.83053025

l-shell populations (up)
 Atom Sh.   l       Population
    1   1   0       1.36728299
    1   2   1       2.32351080
    2   1   0       1.47569634
    2   2   1       3.72778231
    3   1   0       0.82692511
    4   1   0       0.71561669
    5   1   0       0.73265550
    6   1   0       0.83053025

Orbital populations (up)
 Atom Sh.   l   m       Population  Label
    1   1   0   0       1.36728299  s
    1   2   1  -1       0.47361653  p_y
    1   2   1   0       0.86889710  p_z
    1   2   1   1       0.98099717  p_x
    2   1   0   0       1.47569634  s
    2   2   1  -1       1.33543530  p_y
    2   2   1   0       1.09006374  p_z
    2   2   1   1       1.30228327  p_x
    3   1   0   0       0.82692511  s
    4   1   0   0       0.71561669  s
    5   1   0   0       0.73265550  s
    6   1   0   0       0.83053025  s

Fermi level:                        -0.5023408527 H          -13.6694 eV
Band energy:                        -8.7156499236 H         -237.1649 eV
TS:                                  0.0000000000 H            0.0000 eV
Band free energy (E-TS):            -8.7156499236 H         -237.1649 eV
Extrapolated E(0K):                 -8.7156499236 H         -237.1649 eV
Input / Output electrons (q):     12.0000000000     12.0000000000

Energy H0:                          -5.4491908384 H         -148.2800 eV
Energy SCC:                          0.1337277117 H            3.6389 eV
Total Electronic energy:            -5.3154631267 H         -144.6411 eV
Repulsive energy:                    0.1495526113 H            4.0695 eV
Total energy:                       -5.1659105155 H         -140.5716 eV
Extrapolated to 0:                  -5.1659105155 H         -140.5716 eV
Total Mermin free energy:           -5.1659105155 H         -140.5716 eV
Force related energy:               -5.1659105155 H         -140.5716 eV

SCC converged

Excitation Energy:                   0.1000379204 H            2.7222 eV

Total Forces
    1     -0.009123115241     -0.009184665607      0.078913001656
    2      0.003093520683      0.002072084322     -0.078665367555
    3     -0.001979132553      0.014638205783      0.003246926847
    4     -0.010131050584     -0.011244435429     -0.001678586384
    5      0.009673439005      0.013087343049     -0.004894335474
    6      0.008466338690     -0.009368532118      0.003078360911

Maximal derivative component:        0.789130E-01 au


