|===============================================================================
|
|  DFTB+ release 20.1
|
|  Copyright (C) 2006 - 2020  DFTB+ developers group
|
|===============================================================================
|
|  When publishing results obtained with DFTB+, please cite the following
|  reference:
|
|  * DFTB+, a software package for efficient approximate density functional
|    theory based atomistic simulations, J. Chem. Phys. 152, 124101 (2020).
|    [doi: 10.1063/1.5143190]
|
|  You should also cite additional publications crediting the parametrization
|  data you use. Please consult the documentation of the SK-files for the
|  references.
|
|===============================================================================

Reading input file 'dftb_in.hsd'
Parser version: 8

--------------------------------------------------------------------------------
Reading SK-files:
Done.


Processed input in HSD format written to 'dftb_pin.hsd'

Starting initialization...
--------------------------------------------------------------------------------
WARNING!
-> Excited state forces are not implemented yet for fractional occupations, kT=  0.3158E-02K
OpenMP threads:              1
Chosen random seed:          433657680
Mode:                        Static calculation
Self consistent charges:     Yes
SCC-tolerance:                 0.100000E-05
Max. scc iterations:                    100
Shell resolved Hubbard:      No
Spin polarisation:           No
Nr. of up electrons:             6.000000
Nr. of down electrons:           6.000000
Periodic boundaries:         No
Electronic solver:           Relatively robust
Mixer:                       Broyden mixer
Mixing parameter:                  0.200000
Maximal SCC-cycles:                     100
Nr. of chrg. vec. in memory:              0
Electronic temperature:        0.100000E-07 H      0.272114E-06 eV
Initial charges:             Set automatically (system chrg:   0.100E+01)
Included shells:             C:  s, p
                             N:  s, p
                             H:  s
Extra options:
                             Mulliken analysis
                             Force calculation
Force type                   original
                             Eigenvector printing

--------------------------------------------------------------------------------

***  Geometry step: 0

 iSCC Total electronic   Diff electronic      SCC error    
    1   -0.52880523E+01    0.00000000E+00    0.10343774E+01
    2   -0.53050852E+01   -0.17032834E-01    0.66467472E+00
    3   -0.53126133E+01   -0.75281860E-02    0.23492519E+00
    4   -0.51122143E+01    0.20039903E+00    0.14997723E+01
    5   -0.53153410E+01   -0.20312665E+00    0.37095535E-01
    6   -0.53154316E+01   -0.90613383E-04    0.23599911E-01
    7   -0.53154360E+01   -0.43798210E-05    0.20350215E-01
    8   -0.53154591E+01   -0.23126471E-04    0.74765093E-02
    9   -0.53154607E+01   -0.15742238E-05    0.58351503E-02
   10   -0.53154631E+01   -0.24002835E-05    0.10085166E-02
   11   -0.53154631E+01   -0.56727045E-07    0.49577714E-03
   12   -0.53154631E+01   -0.18193832E-07    0.42635767E-05
   13   -0.53154631E+01   -0.13189450E-11    0.51798717E-07
>> Charges saved for restart in charges.bin

Total Energy:                       -5.0658725951 H         -137.8494 eV
Extrapolated to 0:                  -5.1659105155 H         -140.5716 eV
Total Mermin free energy:           -5.0658725951 H         -137.8494 eV
Force related energy:               -5.1659105155 H         -140.5716 eV

--------------------------------------------------------------------------------
DFTB+ running times                          cpu [s]             wall clock [s]
--------------------------------------------------------------------------------
SCC                                    +     0.02  ( 69.7%)      0.05  ( 73.3%)
Post-SCC processing                    +     0.01  ( 24.8%)      0.01  ( 20.0%)
--------------------------------------------------------------------------------
Missing                                +     0.00  (  5.5%)      0.01  (  6.7%)
Total                                  =     0.03  (100.0%)      0.08  (100.0%)
--------------------------------------------------------------------------------
