|===============================================================================
|
|  DFTB+ release 20.1
|
|  Copyright (C) 2006 - 2020  DFTB+ developers group
|
|===============================================================================
|
|  When publishing results obtained with DFTB+, please cite the following
|  reference:
|
|  * DFTB+, a software package for efficient approximate density functional
|    theory based atomistic simulations, J. Chem. Phys. 152, 124101 (2020).
|    [doi: 10.1063/1.5143190]
|
|  You should also cite additional publications crediting the parametrization
|  data you use. Please consult the documentation of the SK-files for the
|  references.
|
|===============================================================================

Reading input file 'dftb_in.hsd'
Parser version: 8

--------------------------------------------------------------------------------
Reading SK-files:
Done.


Processed input in HSD format written to 'dftb_pin.hsd'

Starting initialization...
--------------------------------------------------------------------------------
WARNING!
-> Excited state forces are not implemented yet for fractional occupations, kT=  0.3158E-02K
OpenMP threads:              1
Chosen random seed:          507143030
Mode:                        Static calculation
Self consistent charges:     Yes
SCC-tolerance:                 0.100000E-05
Max. scc iterations:                    100
Shell resolved Hubbard:      No
Spin polarisation:           No
Nr. of up electrons:             6.000000
Nr. of down electrons:           6.000000
Periodic boundaries:         No
Electronic solver:           Relatively robust
Mixer:                       Broyden mixer
Mixing parameter:                  0.200000
Maximal SCC-cycles:                     100
Nr. of chrg. vec. in memory:              0
Electronic temperature:        0.100000E-07 H      0.272114E-06 eV
Initial charges:             Set automatically (system chrg:   0.100E+01)
Included shells:             C:  s, p
                             N:  s, p
                             H:  s
Extra options:
                             Mulliken analysis
                             Force calculation
Force type                   original
                             Eigenvector printing

--------------------------------------------------------------------------------

***  Geometry step: 0

 iSCC Total electronic   Diff electronic      SCC error    
    1   -0.52280887E+01    0.00000000E+00    0.10807902E+01
    2   -0.52543545E+01   -0.26265793E-01    0.65888929E+00
    3   -0.52643975E+01   -0.10042918E-01    0.26957122E+00
    4   -0.47778872E+01    0.48651029E+00    0.22943079E+01
    5   -0.52649377E+01   -0.48705053E+00    0.16935563E+00
    6   -0.52678242E+01   -0.28864971E-02    0.19833712E-01
    7   -0.52678590E+01   -0.34773030E-04    0.74399161E-02
    8   -0.52678672E+01   -0.82679092E-05    0.87889010E-03
    9   -0.52678673E+01   -0.62729457E-07    0.10942508E-03
   10   -0.52678673E+01    0.89831085E-08    0.32787568E-03
   11   -0.52678673E+01   -0.10096946E-07    0.32973350E-04
   12   -0.52678673E+01   -0.94110497E-10    0.15229277E-05
   13   -0.52678673E+01   -0.20961011E-12    0.10716266E-06
>> Charges saved for restart in charges.bin

Total Energy:                       -5.0234086686 H         -136.6939 eV
Extrapolated to 0:                  -5.1339311955 H         -139.7014 eV
Total Mermin free energy:           -5.0234086686 H         -136.6939 eV
Force related energy:               -5.1339311955 H         -139.7014 eV

--------------------------------------------------------------------------------
DFTB+ running times                          cpu [s]             wall clock [s]
--------------------------------------------------------------------------------
SCC                                    +     0.02  ( 61.7%)      0.04  ( 66.7%)
Post-SCC processing                    +     0.01  ( 30.8%)      0.02  ( 27.0%)
--------------------------------------------------------------------------------
Missing                                +     0.00  (  7.5%)      0.00  (  6.3%)
Total                                  =     0.03  (100.0%)      0.06  (100.0%)
--------------------------------------------------------------------------------
