 Fermi distribution function

Calculation with static geometry


********************************************************************************
 iSCC Total electronic   Diff electronic      SCC error    
   10   -0.53399881E+01   -0.41168580E-09    0.39147718E-06
********************************************************************************

 Total charge:     1.00000000

 Atomic gross charges (e)
 Atom           Charge
    1       0.25538799
    2      -0.13694247
    3       0.17812863
    4       0.26174203
    5       0.26523749
    6       0.17644634

Nr. of electrons (up):     12.00000000
Atom populations (up)
 Atom       Population
    1       3.74461201
    2       5.13694247
    3       0.82187137
    4       0.73825797
    5       0.73476251
    6       0.82355366

l-shell populations (up)
 Atom Sh.   l       Population
    1   1   0       1.36518367
    1   2   1       2.37942834
    2   1   0       1.48754161
    2   2   1       3.64940086
    3   1   0       0.82187137
    4   1   0       0.73825797
    5   1   0       0.73476251
    6   1   0       0.82355366

Orbital populations (up)
 Atom Sh.   l   m       Population  Label
    1   1   0   0       1.36518367  s
    1   2   1  -1       0.48294558  p_y
    1   2   1   0       0.88442392  p_z
    1   2   1   1       1.01205884  p_x
    2   1   0   0       1.48754161  s
    2   2   1  -1       1.32756250  p_y
    2   2   1   0       1.15738267  p_z
    2   2   1   1       1.16445569  p_x
    3   1   0   0       0.82187137  s
    4   1   0   0       0.73825797  s
    5   1   0   0       0.73476251  s
    6   1   0   0       0.82355366  s

Fermi level:                        -0.5246662383 H          -14.2769 eV
Band energy:                        -8.8365618892 H         -240.4551 eV
TS:                                  0.0000000000 H            0.0000 eV
Band free energy (E-TS):            -8.8365618892 H         -240.4551 eV
Extrapolated E(0K):                 -8.8365618892 H         -240.4551 eV
Input / Output electrons (q):     12.0000000000     12.0000000000

Energy H0:                          -5.4769150307 H         -149.0344 eV
Energy SCC:                          0.1369269715 H            3.7260 eV
Total Electronic energy:            -5.3399880592 H         -145.3085 eV
Repulsive energy:                    0.1607628920 H            4.3746 eV
Total energy:                       -5.1792251672 H         -140.9339 eV
Extrapolated to 0:                  -5.1792251672 H         -140.9339 eV
Total Mermin free energy:           -5.1792251672 H         -140.9339 eV
Force related energy:               -5.1792251672 H         -140.9339 eV

SCC converged

Excitation Energy:                   0.1563141714 H            4.2535 eV

Total Forces
    1     -0.000905124260     -0.001912202245      0.000213276084
    2     -0.021269401740     -0.004010811947     -0.002345244392
    3     -0.002074417196      0.001928851478     -0.002155775848
    4      0.014624333194     -0.005951004587      0.009006729727
    5      0.008205368128      0.008567269579     -0.001500128955
    6      0.001419241873      0.001377897722     -0.003218856615

Maximal derivative component:        0.212694E-01 au


