 Fermi distribution function

Calculation with static geometry


********************************************************************************
 iSCC Total electronic   Diff electronic      SCC error    
    9   -0.53963026E+01   -0.10858185E-08    0.62142324E-07
********************************************************************************

 Total charge:     1.00000000

 Atomic gross charges (e)
 Atom           Charge
    1       0.31139743
    2      -0.19550594
    3       0.15594864
    4       0.30934469
    5       0.27376066
    6       0.14505452

Nr. of electrons (up):     12.00000000
Atom populations (up)
 Atom       Population
    1       3.68860257
    2       5.19550594
    3       0.84405136
    4       0.69065531
    5       0.72623934
    6       0.85494548

l-shell populations (up)
 Atom Sh.   l       Population
    1   1   0       1.29774895
    1   2   1       2.39085362
    2   1   0       1.42140201
    2   2   1       3.77410393
    3   1   0       0.84405136
    4   1   0       0.69065531
    5   1   0       0.72623934
    6   1   0       0.85494548

Orbital populations (up)
 Atom Sh.   l   m       Population  Label
    1   1   0   0       1.29774895  s
    1   2   1  -1       0.52635307  p_y
    1   2   1   0       0.90104456  p_z
    1   2   1   1       0.96345600  p_x
    2   1   0   0       1.42140201  s
    2   2   1  -1       1.31539676  p_y
    2   2   1   0       1.11151780  p_z
    2   2   1   1       1.34718936  p_x
    3   1   0   0       0.84405136  s
    4   1   0   0       0.69065531  s
    5   1   0   0       0.72623934  s
    6   1   0   0       0.85494548  s

Fermi level:                        -0.4860533562 H          -13.2262 eV
Band energy:                        -8.8742678806 H         -241.4811 eV
TS:                                  0.0000000000 H            0.0000 eV
Band free energy (E-TS):            -8.8742678806 H         -241.4811 eV
Extrapolated E(0K):                 -8.8742678806 H         -241.4811 eV
Input / Output electrons (q):     12.0000000000     12.0000000000

Energy H0:                          -5.5306880298 H         -150.4977 eV
Energy SCC:                          0.1343854063 H            3.6568 eV
Total Electronic energy:            -5.3963026235 H         -146.8409 eV
Repulsive energy:                    0.1979864461 H            5.3875 eV
Total energy:                       -5.1983161774 H         -141.4534 eV
Extrapolated to 0:                  -5.1983161774 H         -141.4534 eV
Total Mermin free energy:           -5.1983161774 H         -141.4534 eV
Force related energy:               -5.1983161774 H         -141.4534 eV

SCC converged

Excitation Energy:                   0.1001137989 H            2.7242 eV

Total Forces
    1     -0.015016914601      0.000021871346     -0.005052067626
    2      0.003987541460     -0.014166110437      0.000306058406
    3     -0.002172747148      0.015506384678      0.004777258459
    4     -0.008563131660     -0.008613815853      0.004449063728
    5      0.012045834220      0.017776240123     -0.005657867284
    6      0.009719417729     -0.010524569857      0.001177554317

Maximal derivative component:        0.177762E-01 au


