|===============================================================================
|
|  DFTB+ release 20.1
|
|  Copyright (C) 2006 - 2020  DFTB+ developers group
|
|===============================================================================
|
|  When publishing results obtained with DFTB+, please cite the following
|  reference:
|
|  * DFTB+, a software package for efficient approximate density functional
|    theory based atomistic simulations, J. Chem. Phys. 152, 124101 (2020).
|    [doi: 10.1063/1.5143190]
|
|  You should also cite additional publications crediting the parametrization
|  data you use. Please consult the documentation of the SK-files for the
|  references.
|
|===============================================================================

Reading input file 'dftb_in.hsd'
Parser version: 8

--------------------------------------------------------------------------------
Reading SK-files:
Done.


Processed input in HSD format written to 'dftb_pin.hsd'

Starting initialization...
--------------------------------------------------------------------------------
OpenMP threads:              1
Chosen random seed:          511514610
Mode:                        Static calculation
Self consistent charges:     Yes
SCC-tolerance:                 0.100000E-05
Max. scc iterations:                   1000
Shell resolved Hubbard:      No
Spin polarisation:           No
Nr. of up electrons:             6.000000
Nr. of down electrons:           6.000000
Periodic boundaries:         No
Electronic solver:           Relatively robust
Maximal SCC-cycles:                    1000
Initial charges:             Set automatically (system chrg:   0.100E+01)
Included shells:             C:  s, p
                             N:  s, p
                             H:  s
Spin coupling constants:     C   1(s)-1(s):  -0.455900E-01
                             C   1(s)-2(p):  -0.293000E-01
                             C   2(p)-1(s):  -0.293000E-01
                             C   2(p)-2(p):  -0.275500E-01
                             N   1(s)-1(s):  -0.468700E-01
                             N   1(s)-2(p):  -0.317000E-01
                             N   2(p)-1(s):  -0.317000E-01
                             N   2(p)-2(p):  -0.307200E-01
                             H   1(s)-1(s):  -0.792500E-01
Range separated hybrid:      Yes
  Screening parameter omega:   0.300000E+00
  Range separated algorithm:   MatrixBased
Extra options:
                             Mulliken analysis
                             Force calculation
Force type                   original
                             Eigenvector printing


REKS Calcuation:             Yes
SSR(2,2) Calcuation:         Yes
Energy Functional:           (PPS+OSS)/2
Number of Core Orbitals:                  5
Number of Active Orbitals:                2
Number of Basis:                         12
Number of States:                         2
State-Averaging Weight:          0.500000
                                 0.500000
State of Interest:                        1
Initial Guess:               Diagonalize H0 matrix
Newton-Raphson for FON opt:  Yes
NR max. Iterations:                      50
Level Shifting:              Yes
Shift Value:                     0.300000
W Scale Factor:              C  =    3.000000
                             N  =    3.000000
                             H  =    3.000000
Transition Dipole:           No
Gradient of Microstate:      No
CP-REKS Solver:              Preconditioned Conjugate-Gradient
CG max. Iterations:                     100
CG Tolerance:                  0.100000E-07
Memory for A and Hxc:        Direct Updating Without Saving
Non-Adiabatic Coupling:      Yes

--------------------------------------------------------------------------------

***  Geometry step: 0

  iSCC       reks energy        Diff energy         x_a       SCC error   
    1       -6.2623091766       0.0000000000     0.999707    1.19205133
    2       -6.2740842816      -0.0117751050     0.999869    0.08502490
    3       -6.2786922554      -0.0046079737     0.999926    0.03563047
    4       -6.2813588843      -0.0026666290     0.999952    0.01724760
    5       -6.2829459399      -0.0015870555     0.999964    0.01078111
    6       -6.2838658429      -0.0009199030     0.999970    0.00947349
    7       -6.2843827129      -0.0005168700     0.999973    0.00776676
    8       -6.2846661522      -0.0002834393     0.999975    0.00609753
    9       -6.2848190731      -0.0001529209     0.999975    0.00465497
   10       -6.2849007804      -0.0000817072     0.999976    0.00348900
   11       -6.2849442289      -0.0000434486     0.999976    0.00258346
   12       -6.2849673067      -0.0000230778     0.999976    0.00189755
   13       -6.2849795845      -0.0000122778     0.999976    0.00138635
   14       -6.2849861416      -0.0000065571     0.999977    0.00100940
   15       -6.2849896633      -0.0000035217     0.999977    0.00073341
   16       -6.2849915682      -0.0000019049     0.999977    0.00053228
   17       -6.2849926073      -0.0000010390     0.999976    0.00038616
   18       -6.2849931792      -0.0000005720     0.999976    0.00028020
   19       -6.2849934973      -0.0000003180     0.999976    0.00020344
   20       -6.2849936759      -0.0000001786     0.999976    0.00014786
   21       -6.2849937773      -0.0000001014     0.999976    0.00011498
   22       -6.2849938354      -0.0000000581     0.999976    0.00009300
   23       -6.2849938691      -0.0000000337     0.999976    0.00007500
   24       -6.2849938888      -0.0000000197     0.999976    0.00006033
   25       -6.2849939004      -0.0000000116     0.999976    0.00004841
   26       -6.2849939072      -0.0000000069     0.999976    0.00003878
   27       -6.2849939114      -0.0000000041     0.999976    0.00003100
   28       -6.2849939138      -0.0000000025     0.999976    0.00002475
   29       -6.2849939153      -0.0000000015     0.999976    0.00001973
   30       -6.2849939162      -0.0000000009     0.999976    0.00001571
   31       -6.2849939168      -0.0000000006     0.999976    0.00001249
   32       -6.2849939171      -0.0000000003     0.999976    0.00000992
   33       -6.2849939173      -0.0000000002     0.999976    0.00000788
   34       -6.2849939175      -0.0000000001     0.999976    0.00000625
   35       -6.2849939175      -0.0000000001     0.999976    0.00000495
   36       -6.2849939176      -0.0000000000     0.999976    0.00000393
   37       -6.2849939176      -0.0000000000     0.999976    0.00000311
   38       -6.2849939176      -0.0000000000     0.999976    0.00000246
   39       -6.2849939177      -0.0000000000     0.999976    0.00000195
   40       -6.2849939177      -0.0000000000     0.999976    0.00000154
   41       -6.2849939177      -0.0000000000     0.999976    0.00000122
   42       -6.2849939177      -0.0000000000     0.999976    0.00000096
  
--------------------------------------------------
 Final SA-REKS(2,2) energy:      -6.28499392
  
 State     Energy      FON(1)    FON(2)   Spin
  PPS   -6.41699938   1.999953  0.000047  0.00
  OSS   -6.15298846   1.000000  1.000000  0.00
 Trip   -6.23067906   1.000000  1.000000  1.00
--------------------------------------------------

 Lagrangian Wab:   0.00113477  0.00113472

--------------------------------------------------
 SSR: 2SI-2SA-REKS(2,2) Hamiltonian matrix
               PPS           OSS
   PPS    -6.41699938    0.00159699
   OSS     0.00159699   -6.15298846
--------------------------------------------------

----------------------------------------------------------------
 SSR: 2SI-2SA-REKS(2,2) states
                    E_n       C_{PPS}    C_{OSS}
 SSR state  1   -6.41700904  -0.999982   0.006049
 SSR state  2   -6.15297880  -0.006049  -0.999982
----------------------------------------------------------------

 unrelaxed SSR FONs for S0:  1.999916  0.000084

Total Energy:                       -6.4170090397 H         -174.6157 eV
Extrapolated to 0:                  -6.4170090397 H         -174.6157 eV

----------------------------------------------------------------------------------
 Solving CP-REKS equation for  1 state vector...
----------------------------------------------------------------------------------
  CG solver: Constructing Y initial guess
  CG solver: Iteration    1    eps =    0.000031173560
  CG solver: Iteration    2    eps =    0.000002095816
  CG solver: Iteration    3    eps =    0.000000247544
  CG solver: Iteration    4    eps =    0.000000003087
  Convergence reached in CG solver after    4 iterations
  CG solver: Calculating converged R, Z, Q2 matrix
----------------------------------------------------------------------------------

----------------------------------------------------------------------------------
 Solving CP-REKS equation for SI between  1 and  2 state vectors...
----------------------------------------------------------------------------------
  CG solver: Constructing Y initial guess
  CG solver: Iteration    1    eps =    0.000375994461
  CG solver: Iteration    2    eps =    0.000145262458
  CG solver: Iteration    3    eps =    0.000047055516
  CG solver: Iteration    4    eps =    0.000000915491
  CG solver: Iteration    5    eps =    0.000000075498
  CG solver: Iteration    6    eps =    0.000000009038
  Convergence reached in CG solver after    6 iterations
  CG solver: Calculating converged R, Z, Q2 matrix
----------------------------------------------------------------------------------

--------------------------------------------------
 Gradient Information
--------------------------------------------------
           1 st state (SSR)
    -0.00468890    -0.00093228     0.01652045
     0.01762320    -0.00023775    -0.01440326
     0.00212092    -0.00115263    -0.00058278
    -0.00280327     0.00044294    -0.00603163
    -0.00907033     0.00170520     0.00115078
    -0.00318161     0.00017452     0.00334644

           2 st state (SSR)
     0.00253538    -0.01133553     0.12268161
    -0.00978537     0.00543817    -0.14311773
    -0.00648128    -0.01429812     0.01777932
     0.00420202     0.01044884    -0.01256302
     0.00593874    -0.00511465    -0.00717822
     0.00359052     0.01486129     0.02239804
--------------------------------------------------
 Coupling Information
--------------------------------------------------
 between  1 and  2 states
--------------------------------------------------
 g vector - difference gradient
    -0.00361704     0.00517555    -0.05309052
     0.01373296    -0.00277749     0.06436774
     0.00436713     0.00656951    -0.00917879
    -0.00344047    -0.00503639     0.00327513
    -0.00758477     0.00339697     0.00415533
    -0.00345781    -0.00732815    -0.00952889

 h vector - derivative coupling
    -0.00038292    -0.00218652    -0.00050044
     0.00228708     0.00501551     0.00047889
     0.00543159    -0.00030763     0.00024215
     0.00516013    -0.00273396     0.00076025
    -0.00658659    -0.00109130    -0.00078319
    -0.00590928     0.00130389    -0.00019765

 G vector - GDV
    -0.00361214     0.00520162    -0.05308058
     0.01370428    -0.00283796     0.06435723
     0.00430110     0.00657275    -0.00918105
    -0.00350265    -0.00500295     0.00326570
    -0.00750453     0.00340993     0.00416450
    -0.00338607    -0.00734339    -0.00952580

 H vector - DCV - non-adiabatic coupling
    -0.00161591    -0.00804357    -0.00432770
     0.00929076     0.01886734     0.00476276
     0.02077041    -0.00086406     0.00049650
     0.01938465    -0.01058471     0.00302925
    -0.02529205    -0.00397730    -0.00277569
    -0.02253786     0.00460231    -0.00118512
--------------------------------------------------


--------------------------------------------------------------------------------
DFTB+ running times                          cpu [s]             wall clock [s]
--------------------------------------------------------------------------------
SCC                                    +     0.02  ( 64.5%)      0.02  ( 58.8%)
Post-SCC processing                    +     0.01  ( 31.5%)      0.01  ( 29.4%)
--------------------------------------------------------------------------------
Missing                                +     0.00  (  4.0%)      0.00  ( 11.8%)
Total                                  =     0.03  (100.0%)      0.03  (100.0%)
--------------------------------------------------------------------------------
