     6
  Step:     0            Position(A)                                  Velocity(au)
C        -0.04111819     0.00977079     0.00883719     0.00001357     0.00007083    -0.00026084
N        -0.03175476    -0.06231988     1.30493451     0.00001414    -0.00003384     0.00018704
H         0.90112773     0.02617763    -0.50548169     0.00023457    -0.00031297     0.00012625
H         0.77684773    -0.05554547     1.85844471     0.00027643     0.00010025     0.00014515
H        -0.96748580    -0.02015571     1.83163167    -0.00044989    -0.00003626     0.00063686
H        -0.99218575     0.12933574    -0.53168701    -0.00041922    -0.00012474    -0.00039929
     6
  Step:     1            Position(A)                                  Velocity(au)
C        -0.04106521     0.01016220     0.00733287     0.00000560     0.00007235    -0.00028839
N        -0.03175152    -0.06251292     1.30603977    -0.00001296    -0.00003672     0.00021661
H         0.90277584     0.02447435    -0.50517526     0.00036691    -0.00031034    -0.00001364
H         0.77897361    -0.05496126     1.85973410     0.00049642     0.00011365     0.00032320
H        -0.96955929    -0.02037498     1.83498302    -0.00030390    -0.00004410     0.00058601
H        -0.99456203     0.12869287    -0.53406795    -0.00044593    -0.00011097    -0.00046920
     6
  Step:     2            Position(A)                                  Velocity(au)
C        -0.04105696     0.01056202     0.00568326    -0.00000265     0.00007396    -0.00031418
N        -0.03189652    -0.06272150     1.30730341    -0.00003973    -0.00003955     0.00024517
H         0.90514028     0.02278375    -0.50563082     0.00049514    -0.00030858    -0.00015149
H         0.78227666    -0.05430260     1.86197925     0.00070371     0.00012754     0.00049233
H        -0.97080930    -0.02063802     1.83804038    -0.00015039    -0.00005224     0.00053066
H        -0.99706245     0.12812220    -0.53681829    -0.00046473    -0.00009842    -0.00053462
     6
  Step:     3            Position(A)                                  Velocity(au)
C        -0.04109421     0.01097072     0.00389815    -0.00001091     0.00007563    -0.00033811
N        -0.03218581    -0.06294525     1.30871997    -0.00006544    -0.00004229     0.00027270
H         0.90818879     0.02110090    -0.50683137     0.00061580    -0.00030766    -0.00028534
H         0.78666667    -0.05356696     1.86511634     0.00089120     0.00014183     0.00064743
H        -0.97120337    -0.02094606     1.84078433     0.00000770    -0.00006053     0.00047249
H        -0.99964257     0.12761688    -0.53991257    -0.00047515    -0.00008710    -0.00059520
     6
  Step:     4            Position(A)                                  Velocity(au)
C        -0.04117624     0.01138860     0.00198784    -0.00001892     0.00007732    -0.00036003
N        -0.03261178    -0.06318372     1.31028391    -0.00008946    -0.00004493     0.00029913
H         0.91187076     0.01942116    -0.50874950     0.00072555    -0.00030748    -0.00041325
H         0.79201718    -0.05275239     1.86905543     0.00105264     0.00015639     0.00078397
H        -0.97072515    -0.02129962     1.84320454     0.00016729    -0.00006884     0.00041318
H        -1.00225575     0.12717024    -0.54332365    -0.00047683    -0.00007695    -0.00065058
     6
  Step:     5            Position(A)                                  Velocity(au)
C        -0.04130098     0.01181576    -0.00003667    -0.00002642     0.00007900    -0.00037980
N        -0.03316347    -0.06343634     1.31198918    -0.00011118    -0.00004745     0.00032431
H         0.91611833     0.01774044    -0.51134783     0.00082135    -0.00030793    -0.00053340
H         0.79817100    -0.05185772     1.87368436     0.00118295     0.00017105     0.00089827
H        -0.96937508    -0.02169843     1.84529994     0.00032513    -0.00007701     0.00035447
H        -1.00485383     0.12677585    -0.54702273    -0.00046954    -0.00006795    -0.00070042
     6
  Step:     6            Position(A)                                  Velocity(au)
C        -0.04146504     0.01225204    -0.00216344    -0.00003320     0.00008061    -0.00039721
N        -0.03382696    -0.06370240     1.31382870    -0.00013009    -0.00004982     0.00034799
H         0.92084828     0.01605538    -0.51457968     0.00090053    -0.00030887    -0.00064409
H         0.80494709    -0.05088272     1.87887377     0.00127840     0.00018563     0.00098762
H        -0.96717140    -0.02214139     1.84707898     0.00047779    -0.00008489     0.00029817
H        -1.00738794     0.12642754    -0.55097940    -0.00045324    -0.00006003    -0.00074441
     6
  Step:     7            Position(A)                                  Velocity(au)
C        -0.04166394     0.01269706    -0.00437954    -0.00003905     0.00008210    -0.00041208
N        -0.03458583    -0.06398104     1.31579395    -0.00014578    -0.00005200     0.00036988
H         0.92596428     0.01436346    -0.51839000     0.00096097    -0.00031012    -0.00074387
H         0.81214831    -0.04982818     1.88448245     0.00133675     0.00019991     0.00105034
H        -0.96415123    -0.02262655     1.84856002     0.00062166    -0.00009230     0.00024616
H        -1.00980926     0.12611949    -0.55516172    -0.00042803    -0.00005314    -0.00078229
     6
  Step:     8            Position(A)                                  Velocity(au)
C        -0.04189224     0.01315015    -0.00667098    -0.00004384     0.00008344    -0.00042422
N        -0.03542163    -0.06427125     1.31787463    -0.00015793    -0.00005398     0.00038961
H         0.93135983     0.01266307    -0.52271656     0.00100111    -0.00031154    -0.00083155
H         0.81956919    -0.04869596     1.89036292     0.00135727     0.00021372     0.00108581
H        -0.96037137    -0.02315100     1.84977166     0.00075306    -0.00009908     0.00020035
H        -1.01207002     0.12584623    -0.55953650    -0.00039426    -0.00004722    -0.00081387
     6
  Step:     9            Position(A)                                  Velocity(au)
C        -0.04214378     0.01361038    -0.00902272    -0.00004745     0.00008458    -0.00043346
N        -0.03631444    -0.06457190     1.32005838    -0.00016632    -0.00005573     0.00040682
H         0.93692173     0.01095353    -0.52749156     0.00102014    -0.00031297    -0.00090628
H         0.82700402    -0.04748898     1.89636700     0.00134068     0.00022686     0.00109446
H        -0.95590876    -0.02371096     1.85075291     0.00086835    -0.00010506     0.00016264
H        -1.01412456     0.12560270    -0.56406976    -0.00035244    -0.00004217    -0.00083908
     6
  Step:    10            Position(A)                                  Velocity(au)
C        -0.04241198     0.01407662    -0.01141886    -0.00004983     0.00008549    -0.00043969
N        -0.03724337    -0.06488174     1.32233074    -0.00017082    -0.00005725     0.00042115
H         0.94253379     0.00923499    -0.53264342     0.00101791    -0.00031427    -0.00096758
H         0.83425416    -0.04621106     1.90235100     0.00128894     0.00023919     0.00107757
H        -0.95086005    -0.02430175     1.85155307     0.00096405    -0.00011010     0.00013484
H        -1.01593040     0.12538428    -0.56872723    -0.00030327    -0.00003793    -0.00085795
     6
  Step:    11            Position(A)                                  Velocity(au)
C        -0.04269004     0.01454752    -0.01384283    -0.00005096     0.00008613    -0.00044283
N        -0.03818705    -0.06519945     1.32467524    -0.00017142    -0.00005851     0.00043227
H         0.94808058     0.00750833    -0.53809868     0.00099494    -0.00031534    -0.00101533
H         0.84113405    -0.04486681     1.90817989     0.00120507     0.00025061     0.00103717
H        -0.94534036    -0.02491793     1.85223106     0.00103706    -0.00011407     0.00011861
H        -1.01744913     0.12518685    -0.57347503    -0.00024762    -0.00003441    -0.00087067
     6
  Step:    12            Position(A)                                  Velocity(au)
C        -0.04297117     0.01502163    -0.01627772    -0.00005088     0.00008649    -0.00044289
N        -0.03912418    -0.06552369     1.32707371    -0.00016818    -0.00005952     0.00043994
H         0.95345048     0.00577498    -0.54378380     0.00095230    -0.00031611    -0.00104974
H         0.84747638    -0.04346137     1.91373097     0.00109286     0.00026103     0.00097584
H        -0.93948123    -0.02555335     1.85285451     0.00108478    -0.00011687     0.00011538
H        -1.01864734     0.12500678    -0.57828036    -0.00018649    -0.00003149    -0.00087754
     6
  Step:    13            Position(A)                                  Velocity(au)
C        -0.04324879     0.01549737    -0.01870666    -0.00004964     0.00008657    -0.00043992
N        -0.04003400    -0.06585312     1.32950665    -0.00016126    -0.00006030     0.00044398
H         0.95853878     0.00403676    -0.54962693     0.00089156    -0.00031654    -0.00107135
H         0.85313585    -0.04200021     1.91889651     0.00095663     0.00027044     0.00089653
H        -0.93342734    -0.02620142     1.85349811     0.00110531    -0.00011844     0.00012617
H        -1.01949715     0.12484101    -0.58311217    -0.00012095    -0.00002909    -0.00087899
     6
  Step:    14            Position(A)                                  Velocity(au)
C        -0.04351676     0.01597317    -0.02111313    -0.00004733     0.00008637    -0.00043403
N        -0.04089673    -0.06618644     1.33195374    -0.00015091    -0.00006084     0.00044432
H         0.96325018     0.00229565    -0.55555957     0.00081468    -0.00031664    -0.00108095
H         0.85799124    -0.04048881     1.92358528     0.00080093     0.00027887     0.00080241
H        -0.92733210    -0.02685524     1.85424131     0.00109766    -0.00011877     0.00015158
H        -1.01997672     0.12468702    -0.58794186    -0.00005211    -0.00002710    -0.00087555
     6
  Step:    15            Position(A)                                  Velocity(au)
C        -0.04376947     0.01644748    -0.02348126    -0.00004407     0.00008590    -0.00042539
N        -0.04169406    -0.06652245     1.33439441    -0.00013742    -0.00006119     0.00044098
H         0.96750065     0.00055360    -0.56151796     0.00072381    -0.00031642    -0.00107955
H         0.86194655    -0.03893246     1.92772340     0.00063041     0.00028640     0.00069666
H        -0.92135247    -0.02750791     1.85516557     0.00106178    -0.00011787     0.00019167
H        -1.02007036     0.12454291    -0.59274372     0.00001892    -0.00002541    -0.00086783
     6
  Step:    16            Position(A)                                  Velocity(au)
C        -0.04400193     0.01691883    -0.02579611    -0.00003998     0.00008518    -0.00041419
N        -0.04240955    -0.06686002     1.33680831    -0.00012119    -0.00006134     0.00043406
H         0.97121829    -0.00118765    -0.56744390     0.00062124    -0.00031594    -0.00106827
H         0.86493116    -0.03733598     1.93125453     0.00044954     0.00029313     0.00058242
H        -0.91564339    -0.02815283     1.85635135     0.00099870    -0.00011585     0.00024592
H        -1.01976847     0.12440734    -0.59749539     0.00009104    -0.00002391    -0.00085647
     6
  Step:    17            Position(A)                                  Velocity(au)
C        -0.04420986     0.01738584    -0.02804380    -0.00003348     0.00008683    -0.00044625
N        -0.04302899    -0.06719817     1.33917584    -0.00010336    -0.00006362     0.00045955
H         0.97434390    -0.00292667    -0.57328546     0.00047379    -0.00036580    -0.00101754
H         0.86689849    -0.03570348     1.93413901     0.00024925     0.00035872     0.00044983
H        -0.91035130    -0.02878410     1.85787448     0.00092442    -0.00017076     0.00030033
H        -1.01906747     0.12427950    -0.60217818     0.00018797     0.00002738    -0.00080125
     6
  Step:    18            Position(A)                                  Velocity(au)
C        -0.04437096     0.01787585    -0.03071463    -0.00002479     0.00009094    -0.00052531
N        -0.04354881    -0.06756129     1.34187346    -0.00008431    -0.00006819     0.00052099
H         0.97644039    -0.00521950    -0.57865907     0.00028360    -0.00045167    -0.00092582
H         0.86767841    -0.03338220     1.93621247     0.00003163     0.00046776     0.00029818
H        -0.90545456    -0.03003492     1.85966152     0.00084353    -0.00026719     0.00034904
H        -1.01769671     0.12470909    -0.60632666     0.00030836     0.00011510    -0.00070176
     6
  Step:    19            Position(A)                                  Velocity(au)
C        -0.04448326     0.01838884    -0.03383759    -0.00001575     0.00009481    -0.00060529
N        -0.04395891    -0.06795027     1.34492205    -0.00006368    -0.00007269     0.00058237
H         0.97747177    -0.00790825    -0.58349666     0.00008981    -0.00051614    -0.00082472
H         0.86724735    -0.03054441     1.93742774    -0.00018574     0.00055333     0.00014273
H        -0.90104768    -0.03173103     1.86172410     0.00074420    -0.00034015     0.00040198
H        -1.01566651     0.12554893    -0.60991809     0.00042444     0.00018339    -0.00060022
     6
  Step:    20            Position(A)                                  Velocity(au)
C        -0.04454487     0.01892250    -0.03739654    -0.00000643     0.00009814    -0.00068056
N        -0.04425179    -0.06836378     1.34830240    -0.00004200    -0.00007684     0.00063875
H         0.97743179    -0.01091726    -0.58776340    -0.00010274    -0.00056853    -0.00071873
H         0.86562804    -0.02727385     1.93778805    -0.00039540     0.00062547    -0.00000934
H        -0.89723918    -0.03378991     1.86409903     0.00062609    -0.00040015     0.00046113
H        -1.01301117     0.12673361    -0.61295263     0.00053240     0.00024167    -0.00049985
     6
  Step:    21            Position(A)                                  Velocity(au)
C        -0.04455435     0.01947347    -0.04135938     0.00000308     0.00010075    -0.00074865
N        -0.04442310    -0.06879955     1.35198178    -0.00001991    -0.00008048     0.00068810
H         0.97633630    -0.01419180    -0.59144031    -0.00028989    -0.00061151    -0.00061055
H         0.86287730    -0.02363151     1.93732449    -0.00059108     0.00068710    -0.00015316
H        -0.89412796    -0.03615364     1.86682064     0.00049189    -0.00045051     0.00052524
H        -1.00978218     0.12821998    -0.61544264     0.00062911     0.00029283    -0.00040280
     6
  Step:    22            Position(A)                                  Velocity(au)
C        -0.04451082     0.02003769    -0.04568332     0.00001265     0.00010253    -0.00080779
N        -0.04447212    -0.06925463     1.35591903     0.00000187    -0.00008351     0.00072909
H         0.97422299    -0.01768607    -0.59452159    -0.00046750    -0.00064637    -0.00050267
H         0.85908539    -0.01966834     1.93609271    -0.00076659     0.00073972    -0.00028430
H        -0.89179448    -0.03877661     1.86991292     0.00034573    -0.00049295     0.00059197
H        -1.00604750     0.12997494    -0.61741122     0.00071159     0.00033840    -0.00031106
     6
  Step:    23            Position(A)                                  Velocity(au)
C        -0.04441402     0.02061046    -0.05031716     0.00002217     0.00010339    -0.00085668
N        -0.04440231    -0.06972564     1.36006683     0.00002255    -0.00008587     0.00076082
H         0.97115205    -0.02135964    -0.59701458    -0.00063149    -0.00067395    -0.00039757
H         0.85437636    -0.01542858     1.93417181    -0.00091602     0.00078433    -0.00039862
H        -0.89029405    -0.04162016     1.87338521     0.00019284    -0.00052856     0.00065838
H        -1.00189109     0.13197262    -0.61889212     0.00077721     0.00037938    -0.00022657
     6
  Step:    24            Position(A)                                  Velocity(au)
C        -0.04426450     0.02118668    -0.05520334     0.00003146     0.00010331    -0.00089455
N        -0.04422151    -0.07020883     1.36437376     0.00004133    -0.00008752     0.00078290
H         0.96720550    -0.02517546    -0.59893968    -0.00077806    -0.00069494    -0.00029772
H         0.84890598    -0.01095238     1.93166297    -0.00103413     0.00082183    -0.00049247
H        -0.88965148    -0.04465025     1.87722928     0.00003912    -0.00055814     0.00072130
H        -0.99741063     0.13419084    -0.61992906     0.00082390     0.00041643    -0.00015110
     6
  Step:    25            Position(A)                                  Velocity(au)
C        -0.04406363     0.02176110    -0.06028053     0.00004039     0.00010230    -0.00092123
N        -0.04394196    -0.07070040     1.36878667     0.00005747    -0.00008850     0.00079548
H         0.96248609    -0.02909978    -0.60033058    -0.00090403    -0.00071017    -0.00020552
H         0.84285840    -0.00627522     1.92868677    -0.00111676     0.00085333    -0.00056295
H        -0.88985832    -0.04783661     1.88141889    -0.00010944    -0.00058249     0.00077778
H        -0.99271468     0.13661074    -0.62057509     0.00085034     0.00045022    -0.00008618
     6
  Step:    26            Position(A)                                  Velocity(au)
C        -0.04381364     0.02232866    -0.06548698     0.00004883     0.00010046    -0.00093726
N        -0.04357994    -0.07119679     1.37325365     0.00007036    -0.00008892     0.00079929
H         0.95711388    -0.03310306    -0.60123385    -0.00100712    -0.00072073    -0.00012310
H         0.83643966    -0.00142667     1.92537881    -0.00116130     0.00088034    -0.00060820
H        -0.89087312    -0.05115263     1.88591156    -0.00024734    -0.00060252     0.00082549
H        -0.98791828     0.13921666    -0.62089112     0.00085620     0.00048152    -0.00003296
     6
  Step:    27            Position(A)                                  Velocity(au)
C        -0.04351749     0.02288482    -0.07076426     0.00005667     0.00009795    -0.00094389
N        -0.04315490    -0.07169504     1.37772711     0.00007959    -0.00008893     0.00079563
H         0.95122097    -0.03716152    -0.60170754    -0.00108623    -0.00072805    -0.00005224
H         0.82986867     0.00357181     1.92188374    -0.00116701     0.00090478    -0.00062761
H        -0.89262491    -0.05457604     1.89065242    -0.00037016    -0.00061926     0.00086302
H        -0.98313761     0.14199677    -0.62094381     0.00084213     0.00051127     0.00000789
     6
  Step:    28            Position(A)                                  Velocity(au)
C        -0.04317875     0.02342593    -0.07606096     0.00006387     0.00009495    -0.00094287
N        -0.04268834    -0.07219307     1.38216673     0.00008495    -0.00008874     0.00078618
H         0.94494531    -0.04125909    -0.60181903    -0.00114133    -0.00073380     0.00000582
H         0.82336616     0.00870915     1.91834793    -0.00113489     0.00092889    -0.00062176
H        -0.89501984    -0.05808994     1.89557954    -0.00047491    -0.00063394     0.00088988
H        -0.97848425     0.14494413    -0.62080269     0.00080962     0.00054058     0.00003627
     6
  Step:    29            Position(A)                                  Velocity(au)
C        -0.04280137     0.02394941    -0.08133551     0.00007039     0.00009168    -0.00093616
N        -0.04220250    -0.07268997     1.38654159     0.00008643    -0.00008856     0.00077273
H         0.93842459    -0.04538871    -0.60164226    -0.00117317    -0.00073971     0.00005033
H         0.81714458     0.01398634     1.91491274    -0.00106722     0.00095501    -0.00059211
H        -0.89794946    -0.06168365     1.90062951    -0.00056005    -0.00064778     0.00090637
H        -0.97406037     0.14805760    -0.62053713     0.00076063     0.00057065     0.00005254
     6
  Step:    30            Position(A)                                  Velocity(au)
C        -0.04238952     0.02445387    -0.08655720     0.00007620     0.00008831    -0.00092553
N        -0.04171927    -0.07318599     1.39083062     0.00008418    -0.00008858     0.00075687
H         0.93179167    -0.04955275    -0.60125469    -0.00118274    -0.00074737     0.00008097
H         0.81140040     0.01941679     1.91170917    -0.00096712     0.00098526    -0.00054073
H        -0.90129915    -0.06535287     1.90574188    -0.00062520    -0.00066184     0.00091322
H        -0.96995601     0.15134226    -0.62021363     0.00069720     0.00060261     0.00005740
     6
  Step:    31            Position(A)                                  Velocity(au)
C        -0.04194757     0.02493883    -0.09170516     0.00008127     0.00008496    -0.00091230
N        -0.04125930    -0.07368241     1.39502160     0.00007844    -0.00008895     0.00073979
H         0.92517311    -0.05376227    -0.60073503    -0.00117078    -0.00075801     0.00009765
H         0.80630890     0.02502521     1.90885432    -0.00083811     0.00102122    -0.00047000
H        -0.90495425    -0.06909897     1.91086132    -0.00067066    -0.00067685     0.00091116
H        -0.96624888     0.15480925    -0.61989399     0.00062114     0.00063735     0.00005178
     6
  Step:    32            Position(A)                                  Velocity(au)
C        -0.04148016     0.02540452    -0.09676581     0.00008548     0.00008169    -0.00089721
N        -0.04084148    -0.07418129     1.39910886     0.00006952    -0.00008974     0.00072219
H         0.91869066    -0.05803493    -0.60016197    -0.00113755    -0.00077244     0.00010041
H         0.80202192     0.03084427     1.90644984    -0.00068404     0.00106379    -0.00038249
H        -0.90880383    -0.07292678     1.91593774    -0.00069709    -0.00069314     0.00090075
H        -0.96300549     0.15847419    -0.61963416     0.00053401     0.00067540     0.00003672
     6
  Step:    33            Position(A)                                  Velocity(au)
C        -0.04099248     0.02585160    -0.10172968     0.00008872     0.00007855    -0.00088050
N        -0.04048254    -0.07468507     1.40309061     0.00005779    -0.00009097     0.00070436
H         0.91246328    -0.06239281    -0.59961319    -0.00108300    -0.00079104     0.00008940
H         0.79866615     0.03691100     1.90458074    -0.00050933     0.00111311    -0.00028112
H        -0.91274280    -0.07684348     1.92092539    -0.00070528    -0.00071075     0.00088236
H        -0.96028239     0.16235545    -0.61948374     0.00043733     0.00071688     0.00001334
     6
  Step:    34            Position(A)                                  Velocity(au)
C        -0.04049037     0.02628086    -0.10658871     0.00009083     0.00007553    -0.00086209
N        -0.04019674    -0.07519620     1.40696677     0.00004372    -0.00009261     0.00068636
H         0.90660865    -0.06685989    -0.59916462    -0.00100708    -0.00081386     0.00006495
H         0.79633976     0.04326226     1.90331365    -0.00031937     0.00116863    -0.00016929
H        -0.91667205    -0.08085601     1.92578138    -0.00069616    -0.00072937     0.00085625
H        -0.95812660     0.16647178    -0.61948534     0.00033278     0.00076158    -0.00001708
     6
  Step:    35            Position(A)                                  Velocity(au)
C        -0.03998055     0.02669309    -0.11133452     0.00009164     0.00007262    -0.00084180
N        -0.03999542    -0.07571688     1.41073754     0.00002787    -0.00009458     0.00066813
H         0.90124307    -0.07146023    -0.59888954    -0.00091018    -0.00084070     0.00002765
H         0.79510795     0.04993101     1.90269463    -0.00012054     0.00122924    -0.00005093
H        -0.92049893    -0.08496965     1.93046512    -0.00067083    -0.00074856     0.00082276
H        -0.95657477     0.17084043    -0.61967399     0.00022238     0.00080900    -0.00005311
     6
  Step:    36            Position(A)                                  Velocity(au)
C        -0.03947049     0.02708907    -0.11595772     0.00009102     0.00006981    -0.00081946
N        -0.03988658    -0.07624881     1.41440286     0.00001087    -0.00009677     0.00064962
H         0.89647863    -0.07621667    -0.59885689    -0.00079345    -0.00087125    -0.00002153
H         0.79499822     0.05694332     1.90274678     0.00007991     0.00129345     0.00006959
H        -0.92413821    -0.08918722     1.93493848    -0.00063071    -0.00076781     0.00078241
H        -0.95565152     0.17547571    -0.62007643     0.00010855     0.00085848    -0.00009320
     6
  Step:    37            Position(A)                                  Velocity(au)
C        -0.03896822     0.02746950    -0.12044815     0.00008892     0.00006711    -0.00079499
N        -0.03987450    -0.07679308     1.41796237    -0.00000657    -0.00009906     0.00063084
H         0.89241862    -0.08114993    -0.59912896    -0.00065903    -0.00090506    -0.00008117
H         0.79599673     0.06431615     1.90346854     0.00027425     0.00135947     0.00018771
H        -0.92751340    -0.09350886     1.93916668    -0.00057751    -0.00078666     0.00073591
H        -0.95536756     0.18038807    -0.62071051    -0.00000599     0.00090925    -0.00013569
     6
  Step:    38            Position(A)                                  Velocity(au)
C        -0.03848202     0.02783507    -0.12479531     0.00008531     0.00006451    -0.00076845
N        -0.03995957    -0.07735007     1.42141564    -0.00002373    -0.00010134     0.00061181
H         0.88915240    -0.08627789    -0.59975918    -0.00051000    -0.00094157    -0.00014943
H         0.79804695     0.07205603     1.90483342     0.00045476     0.00142536     0.00029895
H        -0.93055821    -0.09793222     1.94311932    -0.00051326    -0.00080471     0.00068422
H        -0.95571807     0.18558348    -0.62158479    -0.00011825     0.00096047    -0.00017886
     6
  Step:    39            Position(A)                                  Velocity(au)
C        -0.03802000     0.02818646    -0.12898904     0.00008028     0.00006201    -0.00074000
N        -0.04013829    -0.07791938     1.42476234    -0.00003995    -0.00010345     0.00059262
H         0.88675019    -0.09161503    -0.60078975    -0.00035036    -0.00098013    -0.00022406
H         0.80105120     0.08015827     1.90679121     0.00061433     0.00148911     0.00039924
H        -0.93321797    -0.10245281     1.94677140    -0.00044017    -0.00082163     0.00062843
H        -0.95668188     0.19106320    -0.62269846    -0.00022524     0.00101129    -0.00022105
     6
  Step:    40            Position(A)                                  Velocity(au)
C        -0.03758972     0.02852431    -0.13302012     0.00007396     0.00005962    -0.00070990
N        -0.04040360    -0.07849986     1.42800240    -0.00005460    -0.00010527     0.00057335
H         0.88525828    -0.09717168    -0.60224955    -0.00018483    -0.00101995    -0.00030251
H         0.80487507     0.08860700     1.90927089     0.00074690     0.00154879     0.00048517
H        -0.93545053    -0.10706437     1.95010413    -0.00036062    -0.00083717     0.00056978
H        -0.95822150     0.19682365    -0.62404166    -0.00032403     0.00106086    -0.00026067
     6
  Step:    41            Position(A)                                  Velocity(au)
C        -0.03719776     0.02884921    -0.13688079     0.00006658     0.00005732    -0.00067849
N        -0.04074527    -0.07908967     1.43113606    -0.00006717    -0.00010669     0.00055407
H         0.88469550    -0.10295350    -0.60415272    -0.00001861    -0.00106017    -0.00038204
H         0.80935423     0.09737572     1.91218473     0.00084782     0.00160263     0.00055416
H        -0.93722694    -0.11175939     1.95310546    -0.00027707    -0.00085117     0.00050955
H        -0.96028404     0.20285651    -0.62559628    -0.00041200     0.00110838    -0.00029634
     6
  Step:    42            Position(A)                                  Velocity(au)
C        -0.03684936     0.02916167    -0.14056503     0.00005838     0.00005509    -0.00064613
N        -0.04115057    -0.07968630     1.43416375    -0.00007728    -0.00010761     0.00053484
H         0.88505130    -0.10896096    -0.60649793     0.00014294    -0.00109986    -0.00045986
H         0.81430301     0.10642864     1.91543328     0.00091413     0.00164918     0.00060460
H        -0.93853162    -0.11652952     1.95577039    -0.00019194    -0.00086355     0.00044905
H        -0.96280308     0.20914904    -0.62733700    -0.00048693     0.00115311    -0.00032688
     6
  Step:    43            Position(A)                                  Velocity(au)
C        -0.03654826     0.02946208    -0.14406880     0.00004967     0.00005292    -0.00061323
N        -0.04160495    -0.08028676     1.43708606    -0.00008466    -0.00010794     0.00051572
H         0.88628566    -0.11518914    -0.60926859     0.00029466    -0.00113809    -0.00053334
H         0.81952373     0.11572241     1.91891071     0.00094459     0.00168733     0.00063584
H        -0.93936225    -0.12136611     1.95810099    -0.00010759    -0.00087432     0.00038957
H        -0.96570102     0.21568456    -0.62923272    -0.00054708     0.00119445    -0.00035140
     6
  Step:    44            Position(A)                                  Velocity(au)
C        -0.03629650     0.02975071    -0.14739016     0.00004075     0.00005079    -0.00058018
N        -0.04209281    -0.08088769     1.43990360    -0.00008919    -0.00010765     0.00049670
H         0.88833085    -0.12162773    -0.61243396     0.00043189    -0.00117396    -0.00060012
H         0.82481613     0.12520841     1.92251004     0.00093954     0.00171642     0.00064812
H        -0.93972911    -0.12626064     1.96010621    -0.00002622    -0.00088360     0.00033232
H        -0.96889204     0.22244314    -0.63124803    -0.00059129     0.00123193    -0.00036930
     6