 Fermi distribution function

Calculation with static geometry


********************************************************************************
 iSCC Total electronic   Diff electronic      SCC error    
   11   -0.53988707E+01   -0.14921397E-12    0.26638785E-07
********************************************************************************

 Total charge:     1.00000000

 Atomic gross charges (e)
 Atom           Charge
    1       0.28323083
    2      -0.17060178
    3       0.15299905
    4       0.31046937
    5       0.27046574
    6       0.15343678

Nr. of electrons (up):     12.00000000
Atom populations (up)
 Atom       Population
    1       3.71676917
    2       5.17060178
    3       0.84700095
    4       0.68953063
    5       0.72953426
    6       0.84656322

l-shell populations (up)
 Atom Sh.   l       Population
    1   1   0       1.29117354
    1   2   1       2.42559563
    2   1   0       1.41575016
    2   2   1       3.75485162
    3   1   0       0.84700095
    4   1   0       0.68953063
    5   1   0       0.72953426
    6   1   0       0.84656322

Orbital populations (up)
 Atom Sh.   l   m       Population  Label
    1   1   0   0       1.29117354  s
    1   2   1  -1       0.54880756  p_y
    1   2   1   0       0.90510483  p_z
    1   2   1   1       0.97168324  p_x
    2   1   0   0       1.41575016  s
    2   2   1  -1       1.32934941  p_y
    2   2   1   0       1.10924223  p_z
    2   2   1   1       1.31625998  p_x
    3   1   0   0       0.84700095  s
    4   1   0   0       0.68953063  s
    5   1   0   0       0.72953426  s
    6   1   0   0       0.84656322  s

Fermi level:                        -0.4874426409 H          -13.2640 eV
Band energy:                        -8.9085011610 H         -242.4127 eV
TS:                                  0.0000000000 H            0.0000 eV
Band free energy (E-TS):            -8.9085011610 H         -242.4127 eV
Extrapolated E(0K):                 -8.9085011610 H         -242.4127 eV
Input / Output electrons (q):     12.0000000000     12.0000000000

Energy H0:                          -5.5341076844 H         -150.5907 eV
Energy SCC:                          0.1352370002 H            3.6800 eV
Total Electronic energy:            -5.3988706842 H         -146.9107 eV
Repulsive energy:                    0.2094709688 H            5.7000 eV
Total energy:                       -5.1893997154 H         -141.2108 eV
Extrapolated to 0:                  -5.1893997154 H         -141.2108 eV
Total Mermin free energy:           -5.1893997154 H         -141.2108 eV
Force related energy:               -5.1893997154 H         -141.2108 eV

SCC converged

Excitation Energy:                   0.0944831452 H            2.5710 eV

Total Forces
    1     -0.019709050925      0.010203247073     -0.022452606355
    2      0.008032243147      0.008074546417      0.018961467857
    3      0.001836622737     -0.016591735634      0.001287833712
    4     -0.006341430431      0.007875136975      0.008367281571
    5      0.008347686390     -0.016233056176     -0.003080537174
    6      0.007833929082      0.006671861344     -0.003083439612

Maximal derivative component:        0.224526E-01 au


