     6
  Step:   300            Position(A)                                  Velocity(au)
C        -0.06656582     0.01560418     0.02383688     0.00009315     0.00014648     0.00010932
N        -0.00600798    -0.05461281     1.29761922    -0.00030119    -0.00000858    -0.00013467
H         0.16967148    -0.89257497    -0.53160619    -0.00029040    -0.00060086     0.00092065
H         0.02897704     0.80059737     1.86229078     0.00127164    -0.00043542     0.00025211
H        -0.22831017    -0.96003407     1.72326053     0.00189373    -0.00050988     0.00019337
H        -0.30658172     0.95520758    -0.47812494     0.00020047    -0.00008004    -0.00079736
