     6
  Step:     0            Position(A)                                  Velocity(au)
C        -0.03454395    -0.00624896     0.02818438     0.00004196     0.00001141    -0.00024030
N        -0.05141580    -0.03589598     1.28108891     0.00000296     0.00000717     0.00021450
H         0.88679408     0.04724006    -0.49424963    -0.00040628    -0.00027356     0.00055098
H         0.85137876    -0.18698422     1.90535136    -0.00012164     0.00016139    -0.00043277
H        -0.84868208    -0.10315980     1.85531244     0.00012426    -0.00031020     0.00032096
H        -0.97630841     0.14641176    -0.51268119    -0.00013744     0.00018674    -0.00055655
     6
  Step:     1            Position(A)                                  Velocity(au)
C        -0.03432920    -0.00619645     0.02667370     0.00003576     0.00000779    -0.00031045
N        -0.05132650    -0.03585605     1.28247978     0.00002932     0.00000753     0.00029270
H         0.88502358     0.04580944    -0.49167018    -0.00023402    -0.00024970     0.00038803
H         0.85019541    -0.18604205     1.90256909    -0.00030751     0.00018275    -0.00058181
H        -0.84859566    -0.10494679     1.85747676    -0.00009133    -0.00034380     0.00046961
H        -0.97724070     0.14750633    -0.51596950    -0.00020076     0.00021330    -0.00064411
     6
  Step:     2            Position(A)                                  Velocity(au)
C        -0.03415291    -0.00616379     0.02478978     0.00002799     0.00000416    -0.00037685
N        -0.05109515    -0.03581367     1.28428951     0.00005466     0.00000808     0.00036773
H         0.88423512     0.04450974    -0.49000667    -0.00004915    -0.00022600     0.00021747
H         0.84801630    -0.18498590     1.89898948    -0.00048448     0.00020295    -0.00072361
H        -0.84968077    -0.10691907     1.86044745    -0.00030150    -0.00037802     0.00061410
H        -0.97850358     0.14874409    -0.51972421    -0.00025794     0.00023922    -0.00072747
     6
  Step:     3            Position(A)                                  Velocity(au)
C        -0.03402324    -0.00615099     0.02255472     0.00001880     0.00000054    -0.00043852
N        -0.05072910    -0.03576775     1.28649901     0.00007827     0.00000883     0.00043852
H         0.88448635     0.04333927    -0.48929325     0.00014403    -0.00020245     0.00004183
H         0.84490007    -0.18382381     1.89466010    -0.00064820     0.00022109    -0.00085429
H        -0.85189099    -0.10907852     1.86418883    -0.00049999    -0.00041182     0.00074912
H        -0.98006000     0.15012096    -0.52392065    -0.00030746     0.00026399    -0.00080514
     6
  Step:     4            Position(A)                                  Velocity(au)
C        -0.03394738    -0.00615792     0.01999573     0.00000843    -0.00000305    -0.00049419
N        -0.05023949    -0.03571710     1.28908360     0.00009936     0.00000980     0.00050368
H         0.88580975     0.04229651    -0.48954936     0.00033989    -0.00017905    -0.00013537
H         0.84092993    -0.18256883     1.88964996    -0.00079320     0.00023611    -0.00096914
H        -0.85514688    -0.11142128     1.86863713    -0.00068017    -0.00044391     0.00086907
H        -0.98186490     0.15163011    -0.52852630    -0.00034767     0.00028695    -0.00087520
     6
  Step:     5            Position(A)                                  Velocity(au)
C        -0.03393103    -0.00618431     0.01714656    -0.00000278    -0.00000654    -0.00054241
N        -0.04964173    -0.03566052     1.29201109     0.00011708     0.00001097     0.00056149
H         0.88820592     0.04137983    -0.49077465     0.00053151    -0.00015590    -0.00030961
H         0.83621969    -0.18123994     1.88405421    -0.00091304     0.00024680    -0.00106272
H        -0.85933449    -0.11393651     1.87369955    -0.00083533    -0.00047282     0.00096841
H        -0.98386472     0.15326122    -0.53349846    -0.00037691     0.00030733    -0.00093541
     6
  Step:     6            Position(A)                                  Velocity(au)
C        -0.03397789    -0.00622962     0.01404855    -0.00001439    -0.00000988    -0.00058166
N        -0.04895580    -0.03559680     1.29523998     0.00013055     0.00001235     0.00061003
H         0.89163736     0.04058719    -0.49294402     0.00071108    -0.00013316    -0.00047557
H         0.83091901    -0.17986284     1.87799791    -0.00100079     0.00025191    -0.00112932
H        -0.86430574    -0.11660541     1.87925510    -0.00095924    -0.00049699     0.00104212
H        -0.98599749     0.15499976    -0.53878247    -0.00039374     0.00032428    -0.00098340
     6
  Step:     7            Position(A)                                  Velocity(au)
C        -0.03408926    -0.00629293     0.01075108    -0.00002590    -0.00001299    -0.00061055
N        -0.04820628    -0.03552471     1.29871851     0.00013902     0.00001393     0.00064745
H         0.89602433     0.03991571    -0.49600363     0.00087057    -0.00011109    -0.00062755
H         0.82521583    -0.17847014     1.87163716    -0.00104984     0.00025031    -0.00116370
H        -0.86988150    -0.11940099     1.88515786    -0.00104684    -0.00051499     0.00108633
H        -0.98819394     0.15682673    -0.54431108    -0.00039710     0.00033701    -0.00101699
     6
  Step:     8            Position(A)                                  Velocity(au)
C        -0.03426372    -0.00637296     0.00731079    -0.00003680    -0.00001579    -0.00062809
N        -0.04742164    -0.03544312     1.30238497     0.00014194     0.00001568     0.00067228
H         0.90124457     0.03936122    -0.49986938     0.00100268    -0.00009003    -0.00076013
H         0.81933346    -0.17710050     1.86515579    -0.00105503     0.00024119    -0.00116205
H        -0.87585828    -0.12228866     1.89124334    -0.00109505    -0.00052573     0.00109892
H        -0.99037970     0.15871885    -0.55000551    -0.00038661     0.00034491    -0.00103465
     6
  Step:     9            Position(A)                                  Velocity(au)
C        -0.03449710    -0.00646799     0.00378937    -0.00004661    -0.00001823    -0.00063403
N        -0.04663300    -0.03535097     1.30616999     0.00013914     0.00001758     0.00068384
H         0.90713789     0.03891787    -0.50442882     0.00110197    -0.00007033    -0.00086904
H         0.81352198    -0.17579683     1.85875715    -0.00101387     0.00022423    -0.00112292
H        -0.88201894    -0.12522815     1.89733819    -0.00110346    -0.00052871     0.00108015
H        -0.99247910     0.16064968    -0.55577899    -0.00036278     0.00034773    -0.00103596
     6
  Step:    10            Position(A)                                  Velocity(au)
C        -0.03478280    -0.00657599     0.00024971    -0.00005500    -0.00002027    -0.00062906
N        -0.04587206    -0.03524734     1.31000075     0.00013087     0.00001962     0.00068255
H         0.91351701     0.03857791    -0.50954775     0.00116593    -0.00005238    -0.00095203
H         0.80804219    -0.17460325     1.85265008    -0.00092740     0.00019979    -0.00104794
H        -0.88814725    -0.12817682     1.90327274    -0.00107473    -0.00052425     0.00103284
H        -0.99441987     0.16259149    -0.56154275    -0.00032703     0.00034572    -0.00102198
     6
  Step:    11            Position(A)                                  Velocity(au)
C        -0.03511248    -0.00669476    -0.00324928    -0.00006180    -0.00002191    -0.00061492
N        -0.04516866    -0.03513147     1.31380718     0.00011782     0.00002178     0.00067010
H         0.92018380     0.03833176    -0.51508136     0.00119560    -0.00003646    -0.00100950
H         0.80314506    -0.17356135     1.84703146    -0.00080038     0.00016883    -0.00094190
H        -0.89404433    -0.13109411     1.90889489    -0.00101443    -0.00051357     0.00096220
H        -0.99613835     0.16451800    -0.56721420    -0.00028163     0.00033967    -0.00099545
     6
  Step:    12            Position(A)                                  Velocity(au)
C        -0.03547712    -0.00682217    -0.00665842    -0.00006708    -0.00002323    -0.00059422
N        -0.04454839    -0.03500269     1.31752886     0.00010101     0.00002407     0.00064928
H         0.92694869     0.03816835    -0.52088870     0.00119528    -0.00002272    -0.00104448
H         0.79905053    -0.17270655     1.84206853    -0.00064040     0.00013279    -0.00081188
H        -0.89954362    -0.13394643     1.91408231    -0.00093005    -0.00049865     0.00087489
H        -0.99758372     0.16640745    -0.57272587    -0.00022918     0.00033088    -0.00096039
     6
  Step:    13            Position(A)                                  Velocity(au)
C        -0.03586809    -0.00695647    -0.00994287    -0.00007104    -0.00002432    -0.00056990
N        -0.04403082    -0.03486030     1.32112095     0.00008154     0.00002654     0.00062334
H         0.93364805     0.03807586    -0.52684691     0.00117128    -0.00001116    -0.00106186
H         0.79593132    -0.17206553     1.83788603    -0.00045618     0.00009321    -0.00066574
H        -0.90452092    -0.13671121     1.91875008    -0.00082952    -0.00048182     0.00077773
H        -0.99871997     0.16824521    -0.57803251    -0.00017217     0.00032085    -0.00092136
     6
  Step:    14            Position(A)                                  Velocity(au)
C        -0.03627803    -0.00709642    -0.01308379    -0.00007397    -0.00002530    -0.00054453
N        -0.04362908    -0.03470351     1.32455675     0.00006040     0.00002921     0.00059528
H         0.94015440     0.03804254    -0.53286078     0.00113007    -0.00000163    -0.00106694
H         0.79390723    -0.17165569     1.83456256    -0.00025589     0.00005142    -0.00051052
H        -0.90889611    -0.13937878     1.92285097    -0.00071958    -0.00046520     0.00067636
H        -0.99952490     0.17002493    -0.58311389    -0.00011244     0.00031096    -0.00088239
     6
  Step:    15            Position(A)                                  Velocity(au)
C        -0.03670130    -0.00724140    -0.01607648    -0.00007616    -0.00002625    -0.00051987
N        -0.04335050    -0.03453132     1.32782611     0.00003836     0.00003212     0.00056722
H         0.94637712     0.03805749    -0.53886493     0.00107679     0.00000610    -0.00106412
H         0.79304895    -0.17148637     1.83213560    -0.00004633     0.00000846    -0.00035163
H        -0.91262629    -0.14195120     1.92636855    -0.00060496    -0.00045031     0.00057448
H        -0.99998650     0.17174783    -0.58797175    -0.00005106     0.00030217    -0.00084620
     6
  Step:    16            Position(A)                                  Velocity(au)
C        -0.03713379    -0.00739136    -0.01892563    -0.00007776    -0.00002724    -0.00049668
N        -0.04319803    -0.03434261     1.33093062     0.00001599     0.00003527     0.00054025
H         0.95225429     0.03811108    -0.54481837     0.00101446     0.00001228    -0.00105610
H         0.79338661    -0.17156066     1.83061123     0.00016676    -0.00003486    -0.00019307
H        -0.91569411    -0.14443888     1.92930644    -0.00048835    -0.00043790     0.00047404
H        -1.00009868     0.17342047    -0.59262267     0.00001147     0.00029497    -0.00081398
     6
  Step:    17            Position(A)                                  Velocity(au)
C        -0.03757233    -0.00754655    -0.02164005    -0.00007885    -0.00002831    -0.00047493
N        -0.04317134    -0.03413626     1.33387778    -0.00000622     0.00003862     0.00051461
H         0.95774075     0.03819500    -0.55069499     0.00094435     0.00001710    -0.00104398
H         0.79491691    -0.17187687     1.82997292     0.00037787    -0.00007776    -0.00003805
H        -0.91809665    -0.14685643     1.93167851    -0.00037118    -0.00042816     0.00037583
H        -0.99985798     0.17505199    -0.59708968     0.00007492     0.00028942    -0.00078575
     6
  Step:    18            Position(A)                                  Velocity(au)
C        -0.03801412    -0.00770742    -0.02422833    -0.00007940    -0.00002945    -0.00045419
N        -0.04326745    -0.03391138     1.33667636    -0.00002780     0.00004211     0.00049007
H         0.96279826     0.03830201    -0.55647468     0.00086674     0.00002072    -0.00102782
H         0.79760566    -0.17242892     1.83018636     0.00058119    -0.00011939     0.00011029
H        -0.91983841    -0.14921940     1.93350263    -0.00025439    -0.00042091     0.00028026
H        -0.99926223     0.17665192    -0.60139575     0.00013898     0.00028536    -0.00076085
     6
  Step:    19            Position(A)                                  Velocity(au)
C        -0.03845630    -0.00787444    -0.02669658    -0.00007860    -0.00002762    -0.00048111
N        -0.04348085    -0.03366746     1.33933380    -0.00004871     0.00004444     0.00050351
H         0.96739018     0.03842563    -0.56213772     0.00074813    -0.00003763    -0.00097560
H         0.80138727    -0.17320605     1.83120080     0.00075887    -0.00009864     0.00024149
H        -0.92092882    -0.15154245     1.93479866    -0.00012391    -0.00046780     0.00016551
H        -0.99831076     0.17822891    -0.60556022     0.00023036     0.00031561    -0.00069545
     6
  Step:    20            Position(A)                                  Velocity(au)
C        -0.03888723    -0.00801426    -0.02957281    -0.00007602    -0.00002255    -0.00055712
N        -0.04380852    -0.03341770     1.34226966    -0.00006827     0.00004524     0.00055646
H         0.97110894     0.03788401    -0.56731215     0.00058778    -0.00014519    -0.00088454
H         0.80603558    -0.17352462     1.83286896     0.00090128    -0.00002844     0.00034764
H        -0.92121487    -0.15441595     1.93534126     0.00001950    -0.00055271     0.00003151
H        -0.99670330     0.18015789    -0.60912117     0.00034600     0.00036644    -0.00058877
     6
  Step:    21            Position(A)                                  Velocity(au)
C        -0.03929978    -0.00812465    -0.03287783    -0.00007217    -0.00001724    -0.00063283
N        -0.04423826    -0.03316557     1.34550777    -0.00008537     0.00004551     0.00060996
H         0.97391163     0.03681471    -0.57195175     0.00042069    -0.00023447    -0.00078599
H         0.81138699    -0.17352156     1.83505786     0.00101371     0.00002484     0.00043219
H        -0.92071247    -0.15767479     1.93514823     0.00015749    -0.00061562    -0.00009700
H        -0.99447183     0.18229459    -0.61209272     0.00045440     0.00039824    -0.00048464
     6
  Step:    22            Position(A)                                  Velocity(au)
C        -0.03968781    -0.00820546    -0.03659304    -0.00006714    -0.00001194    -0.00070295
N        -0.04475555    -0.03291288     1.34903621    -0.00009951     0.00004542     0.00065930
H         0.97577585     0.03528289    -0.57603151     0.00025073    -0.00031331    -0.00068301
H         0.81728104    -0.17324906     1.83766346     0.00109499     0.00007092     0.00049770
H        -0.91946775    -0.16124523     1.93426522     0.00028467    -0.00066668    -0.00021540
H        -0.99166247     0.18457572    -0.61449753     0.00055251     0.00042015    -0.00038472
     6
  Step:    23            Position(A)                                  Velocity(au)
C        -0.04004526    -0.00825717    -0.04068252    -0.00006100    -0.00000677    -0.00076463
N        -0.04534307    -0.03266132     1.35282776    -0.00011018     0.00004498     0.00070201
H         0.97669546     0.03333617    -0.57953501     0.00008159    -0.00038365    -0.00057756
H         0.82354436    -0.17273418     1.84058370     0.00114299     0.00011299     0.00054419
H        -0.91755182    -0.16507678     1.93275672     0.00039627    -0.00070888    -0.00032006
H        -0.98833749     0.18695937    -0.61636415     0.00063716     0.00043505    -0.00029053
     6
  Step:    24            Position(A)                                  Velocity(au)
C        -0.04036623    -0.00828072    -0.04509704    -0.00005382    -0.00000183    -0.00081572
N        -0.04598093    -0.03241258     1.35684370    -0.00011699     0.00004422     0.00073628
H         0.97668321     0.03101608    -0.58245493    -0.00008270    -0.00044608    -0.00047180
H         0.82999295    -0.17199248     1.84371579     0.00115661     0.00015248     0.00057175
H        -0.91506057    -0.16912911     1.93070562     0.00048780    -0.00074363    -0.00040764
H        -0.98457616     0.18941414    -0.61772867     0.00070533     0.00044452    -0.00020379
     6
  Step:    25            Position(A)                                  Velocity(au)
C        -0.04064526    -0.00827760    -0.04977673    -0.00004574     0.00000277    -0.00085476
N        -0.04664733    -0.03216829     1.36103632    -0.00011971     0.00004318     0.00076092
H         0.97577341     0.02836294    -0.58479496    -0.00023788    -0.00050070    -0.00036819
H         0.83643902    -0.17103424     1.84695798     0.00113651     0.00018991     0.00058112
H        -0.91211350    -0.17336726     1.92821211     0.00055545    -0.00077197    -0.00047536
H        -0.98047399     0.19191515    -0.61863616     0.00075449     0.00044972    -0.00012632
     6
  Step:    26            Position(A)                                  Velocity(au)
C        -0.04087764    -0.00824975    -0.05465450    -0.00003696     0.00000696    -0.00088114
N        -0.04731947    -0.03192979     1.36535194    -0.00011835     0.00004193     0.00077548
H         0.97402335     0.02541748    -0.58657184    -0.00037990    -0.00054761    -0.00026936
H         0.84270077    -0.16986895     1.85021362     0.00108533     0.00022534     0.00057395
H        -0.90884987    -0.17776089     1.92539044     0.00059656    -0.00079504    -0.00052142
H        -0.97613982     0.19444269    -0.61914108     0.00078306     0.00045173    -0.00005975
     6
  Step:    27            Position(A)                                  Velocity(au)
C        -0.04105980    -0.00819952    -0.05966044    -0.00002772     0.00001067    -0.00089527
N        -0.04797486    -0.03169801     1.36973478    -0.00011316     0.00004058     0.00078033
H         0.97151214     0.02222046    -0.58781635    -0.00050545    -0.00058720    -0.00017782
H         0.84861302    -0.16850668     1.85339595     0.00100753     0.00025865     0.00055272
H        -0.90542190    -0.18228511     1.92236334     0.00061014    -0.00081419    -0.00054533
H        -0.97169052     0.19698212    -0.61930631     0.00079065     0.00045170    -0.00000531
     6
  Step:    28            Position(A)                                  Velocity(au)
C        -0.04118952    -0.00812968    -0.06472722    -0.00001828     0.00001386    -0.00089845
N        -0.04859268    -0.03147327     1.37413153    -0.00010461     0.00003925     0.00077666
H         0.96833654     0.01881087    -0.58857252    -0.00061233    -0.00062031    -0.00009567
H         0.85403662    -0.16695883     1.85643233     0.00090887     0.00028982     0.00052053
H        -0.90198518    -0.18692143     1.91925485     0.00059685    -0.00083110    -0.00054792
H        -0.96724412     0.19952482    -0.61920086     0.00077813     0.00045093     0.00003632
     6
  Step:    29            Position(A)                                  Velocity(au)
C        -0.04126602    -0.00804315    -0.06979508    -0.00000889     0.00001653    -0.00089267
N        -0.04915485    -0.03125523     1.37849558    -0.00009328     0.00003808     0.00076616
H         0.96460497     0.01522326    -0.58889557    -0.00069954    -0.00064821    -0.00002444
H         0.85886517    -0.16523747     1.85926758     0.00079554     0.00031895     0.00048072
H        -0.89868934    -0.19166006     1.91618268     0.00055884    -0.00084767    -0.00053118
H        -0.96291305     0.20206868    -0.61889658     0.00074733     0.00045070     0.00006515
     6
  Step:    30            Position(A)                                  Velocity(au)
C        -0.04128995    -0.00794285    -0.07481529     0.00000025     0.00001871    -0.00088013
N        -0.04964683    -0.03104287     1.38278990    -0.00007982     0.00003718     0.00075072
H         0.96043103     0.01148540    -0.58884871    -0.00076702    -0.00067238     0.00003501
H         0.86302703    -0.16335442     1.86186498     0.00067340     0.00034627     0.00043647
H        -0.89566976    -0.19650099     1.91325192     0.00049922    -0.00086573    -0.00049784
H        -0.95879852     0.20461815    -0.61846460     0.00070061     0.00045215     0.00008173
     6
  Step:    31            Position(A)                                  Velocity(au)
C        -0.04126319    -0.00783148    -0.07975141     0.00000896     0.00002045    -0.00086283
N        -0.05005778    -0.03083460     1.38698799    -0.00006483     0.00003663     0.00073204
H         0.95592817     0.00761704    -0.58849955    -0.00081525    -0.00069425     0.00008234
H         0.86648293    -0.16132030     1.86420514     0.00054740     0.00037210     0.00039049
H        -0.89304199    -0.20145351     1.91055090     0.00042164    -0.00088672    -0.00045093
H        -0.95498751     0.20718353    -0.61797204     0.00064042     0.00045616     0.00008702
     6
  Step:    32            Position(A)                                  Velocity(au)
C        -0.04118863    -0.00771144    -0.08457806     0.00001708     0.00002181    -0.00084231
N        -0.05038037    -0.03062844     1.39107274    -0.00004887     0.00003646     0.00071140
H         0.95120666     0.00363018    -0.58791711    -0.00084484    -0.00071498     0.00011757
H         0.86922076    -0.15914425     1.86628326     0.00042144     0.00039664     0.00034489
H        -0.89089899    -0.20653406     1.90814975     0.00032993    -0.00091152    -0.00039346
H        -0.95155234     0.20977951    -0.61747999     0.00056899     0.00046328     0.00008219
     6
  Step:    33            Position(A)                                  Velocity(au)
C        -0.04106998    -0.00758479    -0.08927830     0.00002450     0.00002285    -0.00081957
N        -0.05061047    -0.03042222     1.39503418    -0.00003242     0.00003669     0.00068965
H         0.94637268    -0.00046964    -0.58716979    -0.00085628    -0.00073541     0.00014093
H         0.87124960    -0.15683412     1.86810598     0.00029853     0.00042003     0.00030129
H        -0.88931040    -0.21176314     1.90610070     0.00022795    -0.00094036    -0.00032832
H        -0.94855198     0.21242335    -0.61704239     0.00048832     0.00047367     0.00006853
     6
  Step:    34            Position(A)                                  Velocity(au)
C        -0.04091173    -0.00745324    -0.09384076     0.00003107     0.00002361    -0.00079518
N        -0.05074673    -0.03021380     1.39886708    -0.00001593     0.00003729     0.00066728
H         0.94152906    -0.00468139    -0.58632437    -0.00084987    -0.00075607     0.00015270
H         0.87259470    -0.15439715     1.86968844     0.00018106     0.00044223     0.00026092
H        -0.88832267    -0.21716190     1.90443907     0.00011968    -0.00097293    -0.00025828
H        -0.94603335     0.21513293    -0.61670551     0.00040030     0.00048724     0.00004736
     6
  Step:    35            Position(A)                                  Velocity(au)
C        -0.04071913    -0.00731815    -0.09825726     0.00003666     0.00002417    -0.00076946
N        -0.05079038    -0.03000121     1.40256888     0.00000015     0.00003821     0.00064454
H         0.93677621    -0.00900690    -0.58544560    -0.00082588    -0.00077723     0.00015324
H         0.87329408    -0.15184059     1.87105216     0.00007106     0.00046314     0.00022472
H        -0.88795904    -0.22274914     1.90318426     0.00000914    -0.00100849    -0.00018601
H        -0.94403196     0.21792514    -0.61650760     0.00030683     0.00050364     0.00002010
     6
  Step:    36            Position(A)                                  Velocity(au)
C        -0.04049818    -0.00718059    -0.10252131     0.00004113     0.00002456    -0.00074258
N        -0.05074507    -0.02978277     1.40613845     0.00001540     0.00003939     0.00062160
H         0.93221194    -0.01344963    -0.58459565    -0.00078477    -0.00079906     0.00014303
H         0.87339633    -0.14917222     1.87222361    -0.00002970     0.00048261     0.00019350
H        -0.88821953    -0.22853914     1.90234059    -0.00009958    -0.00104606    -0.00011410
H        -0.94257191     0.22081468    -0.61647876     0.00020995     0.00052236    -0.00001181
     6
  Step:    37            Position(A)                                  Velocity(au)
C        -0.04025555    -0.00704126    -0.10662751     0.00004436     0.00002486    -0.00071469
N        -0.05061676    -0.02955717     1.40957547     0.00002943     0.00004077     0.00059854
H         0.92793029    -0.01801384    -0.58383339    -0.00072733    -0.00082165     0.00012271
H         0.87295936    -0.14640065     1.87323331    -0.00011961     0.00050047     0.00016792
H        -0.88908148    -0.23454030     1.90189814    -0.00020253    -0.00108452    -0.00004498
H        -0.94166546     0.22381317    -0.61664072     0.00011181     0.00054284    -0.00004689
     6
  Step:    38            Position(A)                                  Velocity(au)
C        -0.03999848    -0.00690056    -0.11057126     0.00004628     0.00002511    -0.00068596
N        -0.05041355    -0.02932351     1.41288013     0.00004188     0.00004228     0.00057546
H         0.92401964    -0.02270434    -0.58321351    -0.00065473    -0.00084506     0.00009310
H         0.87204908    -0.14353513     1.87411498    -0.00019733     0.00051658     0.00014849
H        -0.89050070    -0.24075473     1.90183400    -0.00029603    -0.00112275     0.00001917
H        -0.94131253     0.22692897    -0.61700695     0.00001464     0.00056447    -0.00008369
     6
  Step:    39            Position(A)                                  Velocity(au)
C        -0.03973457    -0.00675857    -0.11434887     0.00004684     0.00002538    -0.00065658
N        -0.05014539    -0.02908129     1.41605305     0.00005242     0.00004383     0.00055247
H         0.92056043    -0.02752608    -0.58278538    -0.00056863    -0.00086937     0.00005522
H         0.87073817    -0.14058587     1.87490477    -0.00026172     0.00053087     0.00013564
H        -0.89241369    -0.24717824     1.90211396    -0.00037689    -0.00115967     0.00007648
H        -0.94150064     0.23016701    -0.61758277    -0.00007934     0.00058664    -0.00012079
     6
  Step:    40            Position(A)                                  Velocity(au)
C        -0.03947155    -0.00661505    -0.11795772     0.00004603     0.00002571    -0.00062678
N        -0.04982382    -0.02883041     1.41909533     0.00006082     0.00004537     0.00052966
H         0.91762262    -0.03248459    -0.58259229    -0.00047113    -0.00089465     0.00001025
H         0.86910480    -0.13756293     1.87564090    -0.00031192     0.00054336     0.00012965
H        -0.89474068    -0.25380088     1.90269435    -0.00044251    -0.00119437     0.00012545
H        -0.94220515     0.23352863    -0.61836587    -0.00016805     0.00060875    -0.00015690
     6
  Step:    41            Position(A)                                  Velocity(au)
C        -0.03921701    -0.00646945    -0.12139648     0.00004391     0.00002616    -0.00059681
N        -0.04946156    -0.02857113     1.42200858     0.00006689     0.00004684     0.00050713
H         0.91526301    -0.03758562    -0.58267010    -0.00036477    -0.00092096    -0.00004041
H         0.86723087    -0.13447629     1.87636262    -0.00034744     0.00055410     0.00013067
H        -0.89738937    -0.26060781     1.90352450    -0.00049102    -0.00122607     0.00016504
H        -0.94339017     0.23701191    -0.61934699    -0.00024956     0.00063027    -0.00019085
     6
  Step:    42            Position(A)                                  Velocity(au)
C        -0.03897806    -0.00632099    -0.12466514     0.00004058     0.00002678    -0.00056692
N        -0.04907204    -0.02830401     1.42479479     0.00007056     0.00004818     0.00048495
H         0.91352305    -0.04283506    -0.58304644    -0.00025244    -0.00094833    -0.00009525
H         0.86520001    -0.13133556     1.87710943    -0.00036812     0.00056320     0.00013865
H        -0.90025913    -0.26758031     1.90454919    -0.00052127    -0.00125420     0.00019465
H        -0.94500985     0.24061203    -0.62051081    -0.00032224     0.00065071    -0.00022166
     6
  Step:    43            Position(A)                                  Velocity(au)
C        -0.03876110    -0.00616867    -0.12776505     0.00003620     0.00002758    -0.00053736
N        -0.04866897    -0.02802987     1.42745633     0.00007180     0.00004937     0.00046321
H         0.91242725    -0.04823876    -0.58374006    -0.00013721    -0.00097674    -0.00015266
H         0.86309557    -0.12814958     1.87792017    -0.00037419     0.00057081     0.00015341
H        -0.90324512    -0.27469697     1.90571110    -0.00053285    -0.00127840     0.00021408
H        -0.94701009     0.24432171    -0.62183704    -0.00038479     0.00066969    -0.00024854
     6
  Step:    44            Position(A)                                  Velocity(au)
C        -0.03857160    -0.00601135    -0.13069887     0.00003094     0.00002859    -0.00050836
N        -0.04826589    -0.02774970     1.42999590     0.00007067     0.00005036     0.00044195
H         0.91198235    -0.05380234    -0.58476059    -0.00002228    -0.00100614    -0.00021104
H         0.86099840    -0.12492620     1.87883202    -0.00036629     0.00057716     0.00017458
H        -0.90624224    -0.28193478     1.90695303    -0.00052600    -0.00129848     0.00022352
H        -0.94933039     0.24813164    -0.62330154    -0.00043622     0.00068691    -0.00027090
     6