|===============================================================================
|
|  DFTB+ release 20.1
|
|  Copyright (C) 2006 - 2020  DFTB+ developers group
|
|===============================================================================
|
|  When publishing results obtained with DFTB+, please cite the following
|  reference:
|
|  * DFTB+, a software package for efficient approximate density functional
|    theory based atomistic simulations, J. Chem. Phys. 152, 124101 (2020).
|    [doi: 10.1063/1.5143190]
|
|  You should also cite additional publications crediting the parametrization
|  data you use. Please consult the documentation of the SK-files for the
|  references.
|
|===============================================================================

Reading input file 'dftb_in.hsd'
Parser version: 8

--------------------------------------------------------------------------------
Reading SK-files:
Done.


Processed input in HSD format written to 'dftb_pin.hsd'

Starting initialization...
--------------------------------------------------------------------------------
WARNING!
-> Excited state forces are not implemented yet for fractional occupations, kT=  0.3158E-02K
OpenMP threads:              1
Chosen random seed:          506592295
Mode:                        Static calculation
Self consistent charges:     Yes
SCC-tolerance:                 0.100000E-05
Max. scc iterations:                    100
Shell resolved Hubbard:      No
Spin polarisation:           No
Nr. of up electrons:             6.000000
Nr. of down electrons:           6.000000
Periodic boundaries:         No
Electronic solver:           Relatively robust
Mixer:                       Broyden mixer
Mixing parameter:                  0.200000
Maximal SCC-cycles:                     100
Nr. of chrg. vec. in memory:              0
Electronic temperature:        0.100000E-07 H      0.272114E-06 eV
Initial charges:             Set automatically (system chrg:   0.100E+01)
Included shells:             C:  s, p
                             N:  s, p
                             H:  s
Extra options:
                             Mulliken analysis
                             Force calculation
Force type                   original
                             Eigenvector printing

--------------------------------------------------------------------------------

***  Geometry step: 0

 iSCC Total electronic   Diff electronic      SCC error    
    1   -0.54255336E+01    0.00000000E+00    0.80864543E+00
    2   -0.54303542E+01   -0.48205379E-02    0.56550360E+00
    3   -0.54343083E+01   -0.39541846E-02    0.61315309E-01
    4   -0.54344072E+01   -0.98880420E-04    0.70312049E-01
    5   -0.54345592E+01   -0.15196830E-03    0.10521793E-01
    6   -0.54345606E+01   -0.14052348E-05    0.37293117E-02
    7   -0.54345609E+01   -0.26436133E-06    0.49347195E-04
    8   -0.54345609E+01   -0.79960927E-10    0.44651057E-04
    9   -0.54345609E+01   -0.55867311E-10    0.75993543E-06
>> Charges saved for restart in charges.bin

Total Energy:                       -5.0986757822 H         -138.7420 eV
Extrapolated to 0:                  -5.2071962468 H         -141.6950 eV
Total Mermin free energy:           -5.0986757822 H         -138.7420 eV
Force related energy:               -5.2071962468 H         -141.6950 eV

--------------------------------------------------------------------------------
DFTB+ running times                          cpu [s]             wall clock [s]
--------------------------------------------------------------------------------
SCC                                    +     0.01  ( 58.7%)      0.04  ( 63.2%)
Post-SCC processing                    +     0.01  ( 33.0%)      0.02  ( 26.5%)
--------------------------------------------------------------------------------
Missing                                +     0.00  (  8.3%)      0.01  ( 10.3%)
Total                                  =     0.02  (100.0%)      0.07  (100.0%)
--------------------------------------------------------------------------------
