 Fermi distribution function

Calculation with static geometry


********************************************************************************
 iSCC Total electronic   Diff electronic      SCC error    
   13   -0.52910932E+01   -0.25111646E-09    0.19792773E-06
********************************************************************************

 Total charge:     1.00000000

 Atomic gross charges (e)
 Atom           Charge
    1       0.30702258
    2      -0.19896942
    3       0.17766015
    4       0.27605886
    5       0.26141133
    6       0.17681651

Nr. of electrons (up):     12.00000000
Atom populations (up)
 Atom       Population
    1       3.69297742
    2       5.19896942
    3       0.82233985
    4       0.72394114
    5       0.73858867
    6       0.82318349

l-shell populations (up)
 Atom Sh.   l       Population
    1   1   0       1.39411388
    1   2   1       2.29886354
    2   1   0       1.50397971
    2   2   1       3.69498971
    3   1   0       0.82233985
    4   1   0       0.72394114
    5   1   0       0.73858867
    6   1   0       0.82318349

Orbital populations (up)
 Atom Sh.   l   m       Population  Label
    1   1   0   0       1.39411388  s
    1   2   1  -1       0.44539788  p_y
    1   2   1   0       0.86684285  p_z
    1   2   1   1       0.98662280  p_x
    2   1   0   0       1.50397971  s
    2   2   1  -1       1.35662390  p_y
    2   2   1   0       1.08991015  p_z
    2   2   1   1       1.24845567  p_x
    3   1   0   0       0.82233985  s
    4   1   0   0       0.72394114  s
    5   1   0   0       0.73858867  s
    6   1   0   0       0.82318349  s

Fermi level:                        -0.5095948357 H          -13.8668 eV
Band energy:                        -8.6782695465 H         -236.1477 eV
TS:                                  0.0000000000 H            0.0000 eV
Band free energy (E-TS):            -8.6782695465 H         -236.1477 eV
Extrapolated E(0K):                 -8.6782695465 H         -236.1477 eV
Input / Output electrons (q):     12.0000000000     12.0000000000

Energy H0:                          -5.4258001024 H         -147.6435 eV
Energy SCC:                          0.1347069286 H            3.6656 eV
Total Electronic energy:            -5.2910931738 H         -143.9780 eV
Repulsive energy:                    0.1427068419 H            3.8833 eV
Total energy:                       -5.1483863319 H         -140.0947 eV
Extrapolated to 0:                  -5.1483863319 H         -140.0947 eV
Total Mermin free energy:           -5.1483863319 H         -140.0947 eV
Force related energy:               -5.1483863319 H         -140.0947 eV

SCC converged

Excitation Energy:                   0.1026474312 H            2.7932 eV

Total Forces
    1      0.001864301547     -0.001699895826      0.054753551358
    2      0.028554677884     -0.011109762175     -0.062923806367
    3     -0.002646185125      0.012244430443      0.000694795700
    4     -0.019597690610      0.002831043292     -0.005228997035
    5     -0.011487198884      0.008986076615      0.009777251718
    6      0.003312095187     -0.011251892350      0.002927204626

Maximal derivative component:        0.629238E-01 au


