|===============================================================================
|
|  DFTB+ release 20.1
|
|  Copyright (C) 2006 - 2020  DFTB+ developers group
|
|===============================================================================
|
|  When publishing results obtained with DFTB+, please cite the following
|  reference:
|
|  * DFTB+, a software package for efficient approximate density functional
|    theory based atomistic simulations, J. Chem. Phys. 152, 124101 (2020).
|    [doi: 10.1063/1.5143190]
|
|  You should also cite additional publications crediting the parametrization
|  data you use. Please consult the documentation of the SK-files for the
|  references.
|
|===============================================================================

Reading input file 'dftb_in.hsd'
Parser version: 8

--------------------------------------------------------------------------------
Reading SK-files:
Done.


Processed input in HSD format written to 'dftb_pin.hsd'

Starting initialization...
--------------------------------------------------------------------------------
WARNING!
-> Excited state forces are not implemented yet for fractional occupations, kT=  0.3158E-02K
OpenMP threads:              1
Chosen random seed:          509314464
Mode:                        Static calculation
Self consistent charges:     Yes
SCC-tolerance:                 0.100000E-05
Max. scc iterations:                    100
Shell resolved Hubbard:      No
Spin polarisation:           No
Nr. of up electrons:             6.000000
Nr. of down electrons:           6.000000
Periodic boundaries:         No
Electronic solver:           Relatively robust
Mixer:                       Broyden mixer
Mixing parameter:                  0.200000
Maximal SCC-cycles:                     100
Nr. of chrg. vec. in memory:              0
Electronic temperature:        0.100000E-07 H      0.272114E-06 eV
Initial charges:             Set automatically (system chrg:   0.100E+01)
Included shells:             C:  s, p
                             N:  s, p
                             H:  s
Extra options:
                             Mulliken analysis
                             Force calculation
Force type                   original
                             Eigenvector printing

--------------------------------------------------------------------------------

***  Geometry step: 0

 iSCC Total electronic   Diff electronic      SCC error    
    1   -0.52557596E+01    0.00000000E+00    0.10774513E+01
    2   -0.52785794E+01   -0.22819812E-01    0.67216456E+00
    3   -0.52868809E+01   -0.83015455E-02    0.27949051E+00
    4   -0.49193126E+01    0.36756833E+00    0.19633839E+01
    5   -0.52893941E+01   -0.37008154E+00    0.13328207E+00
    6   -0.52910879E+01   -0.16937635E-02    0.12027547E-01
    7   -0.52910827E+01    0.51961500E-05    0.14487087E-01
    8   -0.52910912E+01   -0.85283719E-05    0.48884703E-02
    9   -0.52910917E+01   -0.42082008E-06    0.42818492E-02
   10   -0.52910931E+01   -0.14725161E-05    0.67845727E-03
   11   -0.52910932E+01   -0.37390423E-07    0.14736203E-03
   12   -0.52910932E+01   -0.14497186E-08    0.54067386E-04
   13   -0.52910932E+01   -0.25111646E-09    0.19792773E-06
>> Charges saved for restart in charges.bin

Total Energy:                       -5.0457389007 H         -137.3015 eV
Extrapolated to 0:                  -5.1483863319 H         -140.0947 eV
Total Mermin free energy:           -5.0457389007 H         -137.3015 eV
Force related energy:               -5.1483863319 H         -140.0947 eV

--------------------------------------------------------------------------------
DFTB+ running times                          cpu [s]             wall clock [s]
--------------------------------------------------------------------------------
SCC                                    +     0.02  ( 58.7%)      0.08  ( 80.2%)
Post-SCC processing                    +     0.01  ( 36.0%)      0.02  ( 15.8%)
--------------------------------------------------------------------------------
Missing                                +     0.00  (  5.3%)      0.00  (  4.0%)
Total                                  =     0.03  (100.0%)      0.10  (100.0%)
--------------------------------------------------------------------------------
