    14
  Step:   600            Position(A)                                  Velocity(au)
C        -5.59168519    -1.22627354     0.26164224     0.00062993     0.00035667     0.00012506
C        -5.01293466    -0.03005115     0.29227453    -0.00020281    -0.00009693    -0.00007520
H        -5.37622492    -2.13179276    -0.45152313    -0.00032227     0.00205890    -0.00327979
H        -6.48401995    -1.34117905     0.98778214     0.00194188     0.00031240     0.00098468
H        -5.43561012     0.68159564     1.09574841     0.00219165     0.00085696    -0.00127189
C        -3.90009784     0.36324364    -0.73068110    -0.00015445     0.00010261     0.00020992
C        -2.86887161     1.20653218    -0.41095398     0.00046383    -0.00097334     0.00030734
H        -3.91870787    -0.03692830    -1.65987124     0.00027127     0.00180985     0.00017304
H        -2.13861147     1.24388215    -1.25094723     0.00172725     0.00259160    -0.00166353
C        -1.75133602     1.35526669     0.60749614    -0.00012767    -0.00002548    -0.00027083
H        -1.89940365     1.35604004     1.66465064     0.00054221     0.00143322     0.00152619
N        -0.50725178     1.44035506     0.27880410    -0.00067336     0.00004424     0.00005567
H         0.10583975     1.39630045     1.10340437    -0.00167538     0.00094217    -0.00033370
H         0.11542974     1.57308995    -0.58496833    -0.00257444    -0.00303543    -0.00043909
