    14
  Step:     0            Position(A)                                  Velocity(au)
C        -5.96724880    -0.51140263    -0.19466751    -0.00020740    -0.00014897    -0.00007696
C        -4.74783994    -0.80640209     0.15358316    -0.00001222     0.00003389    -0.00000608
H        -6.32155439     0.46245012    -0.51610070     0.00018430    -0.00065123     0.00049470
H        -6.71563358    -1.20183329     0.00515982    -0.00040287     0.00024112    -0.00059042
H        -4.43592890    -1.82273022     0.49770814     0.00041439    -0.00020679     0.00048970
C        -3.80252433     0.24583160     0.00062225    -0.00000327     0.00012710     0.00009184
C        -2.44328227     0.35694725     0.28083860    -0.00023897    -0.00023372    -0.00004498
H        -4.38966714     1.12241533    -0.51186023    -0.00014064     0.00048706    -0.00004046
H        -1.92685750    -0.45840107     0.79694748    -0.00002234     0.00010309     0.00019612
C        -1.92452981     1.61180165     0.04215313     0.00024442    -0.00001554     0.00006850
H        -2.57124699     2.41022201    -0.47733020     0.00022119    -0.00003013    -0.00043181
N        -0.61261118     1.95318592     0.10380413     0.00011743     0.00019746     0.00006396
H        -0.26222172     2.91700638    -0.11041136     0.00025363    -0.00047485    -0.00015909
H         0.20260784     1.38356164     0.52052501     0.00045143     0.00061477    -0.00123260
    14
  Step:     1            Position(A)                                  Velocity(au)
C        -5.97009311    -0.51290040    -0.19560855    -0.00030930    -0.00012740    -0.00009378
C        -4.74727344    -0.80618351     0.15366840     0.00011348     0.00000558     0.00002165
H        -6.31910727     0.45558445    -0.51093798     0.00025215    -0.00057451     0.00043884
H        -6.72216593    -1.20088773    -0.00131382    -0.00078786    -0.00007060    -0.00059243
H        -4.43179738    -1.82406821     0.50297653     0.00033665    -0.00002746     0.00046758
C        -3.80316201     0.24725290     0.00141608    -0.00011355     0.00013292     0.00005313
C        -2.44561238     0.35440798     0.28048803    -0.00018567    -0.00022873    -0.00001927
H        -4.38908884     1.12671722    -0.51114382     0.00024630     0.00029518     0.00017285
H        -1.92683884    -0.45700823     0.79875839     0.00002388     0.00014726     0.00013620
C        -1.92183006     1.61180798     0.04275039     0.00024833     0.00001557     0.00004056
H        -2.56787305     2.40843082    -0.48086206     0.00039519    -0.00029663    -0.00021187
N        -0.61100331     1.95539829     0.10458640     0.00017470     0.00020590     0.00007856
H        -0.26049369     2.91045428    -0.11196415     0.00006844    -0.00069146    -0.00013214
H         0.20485444     1.39121423     0.50605395    -0.00002268     0.00076481    -0.00139787
    14
  Step:     2            Position(A)                                  Velocity(au)
C        -5.97401536    -0.51418982    -0.19671913    -0.00040411    -0.00011248    -0.00010725
C        -4.74535737    -0.80628010     0.15405677     0.00023220    -0.00002281     0.00004863
H        -6.31603804     0.44988161    -0.50650033     0.00029709    -0.00043962     0.00036286
H        -6.73286944    -1.20337786    -0.00780064    -0.00114804    -0.00037071    -0.00059680
H        -4.42856395    -1.82333085     0.50793729     0.00025378     0.00016503     0.00043619
C        -3.80500845     0.24873941     0.00178454    -0.00022278     0.00013860     0.00001465
C        -2.44734411     0.35194341     0.28041710    -0.00013010    -0.00021976     0.00000587
H        -4.38427883     1.12887288    -0.50807877     0.00062553     0.00010149     0.00038412
H        -1.92633500    -0.45517946     0.79992721     0.00006751     0.00018096     0.00007994
C        -1.91909713     1.61214225     0.04304042     0.00025118     0.00004353     0.00001282
H        -2.56260149     2.40373275    -0.48196531     0.00056231    -0.00055362     0.00000708
N        -0.60878935     1.95769045     0.10552269     0.00022616     0.00021191     0.00009179
H        -0.26072451     2.90187946    -0.11330216    -0.00009850    -0.00083190    -0.00012290
H         0.20211162     1.40029329     0.48994398    -0.00044224     0.00086420    -0.00152464
    14
  Step:     3            Position(A)                                  Velocity(au)
C        -5.97893381    -0.51536106    -0.19795488    -0.00049125    -0.00010678    -0.00011624
C        -4.74219370    -0.80668252     0.15473232     0.00033963    -0.00004945     0.00007351
H        -6.31260793     0.44596687    -0.50299974     0.00031860    -0.00025214     0.00026933
H        -6.74728157    -1.20899779    -0.01436991    -0.00145174    -0.00062950    -0.00061031
H        -4.42624552    -1.82045795     0.51251903     0.00017293     0.00035543     0.00040111
C        -3.80803585     0.25028494     0.00173652    -0.00032811     0.00014319    -0.00002244
C        -2.44845851     0.34960029     0.28061637    -0.00007322    -0.00020624     0.00002989
H        -4.37540420     1.12893759    -0.50274045     0.00098177    -0.00007977     0.00058345
H        -1.92536189    -0.45304931     0.80050713     0.00011070     0.00020094     0.00002954
C        -1.91633493     1.61276037     0.04303083     0.00025436     0.00006655    -0.00001371
H        -2.55557138     2.39631928    -0.48070717     0.00071073    -0.00078496     0.00021456
N        -0.60605551     1.96003416     0.10659448     0.00026772     0.00021542     0.00010300
H        -0.26264860     2.89225479    -0.11465279    -0.00023609    -0.00087348    -0.00013704
H         0.19517956     1.41012023     0.47269953    -0.00076938     0.00088988    -0.00159822
    14
  Step:     4            Position(A)                                  Velocity(au)
C        -5.98476245    -0.51652584    -0.19926201    -0.00057043    -0.00011147    -0.00012021
C        -4.73792722    -0.80736200     0.15566503     0.00043241    -0.00007261     0.00009511
H        -6.30906800     0.44436562    -0.50060818     0.00031902    -0.00002490     0.00016297
H        -6.76462903    -1.21714932    -0.02115224    -0.00167607    -0.00082516    -0.00063697
H        -4.42478074    -1.81555523     0.51671227     0.00010111     0.00052876     0.00036801
C        -3.81218647     0.25187207     0.00129372    -0.00042696     0.00014551    -0.00005692
C        -2.44894591     0.34743161     0.28107091    -0.00001575    -0.00018763     0.00005234
H        -4.36280064     1.12712780    -0.49531479     0.00129925    -0.00023270     0.00076024
H        -1.92391317    -0.45078359     0.80057346     0.00015527     0.00020484    -0.00001321
C        -1.91353245     1.61359808     0.04274054     0.00025921     0.00008274    -0.00003796
H        -2.54705284     2.38656025    -0.47727130     0.00082816    -0.00097411     0.00039969
N        -0.60293250     1.96240322     0.10777596     0.00029559     0.00021694     0.00011155
H        -0.26588945     2.88277041    -0.11630007    -0.00033605    -0.00080147    -0.00017861
H         0.18528001     1.41976101     0.45497992    -0.00096721     0.00081964    -0.00160607
    14
  Step:     5            Position(A)                                  Velocity(au)
C        -5.99141313    -0.51779961    -0.20058470    -0.00064157    -0.00012609    -0.00011931
C        -4.73273383    -0.80827106     0.15681307     0.00050831    -0.00009062     0.00011246
H        -6.30562867     0.44542214    -0.49943456     0.00030315     0.00022251     0.00005034
H        -6.78394886    -1.22704966    -0.02830475    -0.00180952    -0.00094600    -0.00067769
H        -4.42403364    -1.80889042     0.52057001     0.00004484     0.00067062     0.00034257
C        -3.81737644     0.25346820     0.00049126    -0.00051715     0.00014393    -0.00008755
C        -2.44880312     0.34549557     0.28176132     0.00004184    -0.00016356     0.00007287
H        -4.34698065     1.12384676    -0.48610869     0.00156155    -0.00033889     0.00090298
H        -1.92196500    -0.44856793     0.80021807     0.00020250     0.00019153    -0.00004714
C        -1.91066413     1.61457050     0.04220028     0.00026705     0.00009028    -0.00005887
H        -2.53745381     2.37500866    -0.47196308     0.00090181    -0.00110433     0.00055125
N        -0.59958885     1.96478003     0.10903480     0.00030700     0.00021750     0.00011695
H        -0.27000030     2.87472106    -0.11856022    -0.00039461    -0.00061373    -0.00024877
H         0.17401996     1.42805135     0.43756378    -0.00100640     0.00063635    -0.00154064
    14
  Step:     6            Position(A)                                  Velocity(au)
C        -5.99879807    -0.51928428    -0.20187225    -0.00070484    -0.00014880    -0.00011428
C        -4.72680695    -0.80934450     0.15812540     0.00056638    -0.00010195     0.00012487
H        -6.30243603     0.44923348    -0.49950697     0.00027726     0.00046593    -0.00006081
H        -6.80421569    -1.23784488    -0.03597806    -0.00185145    -0.00099005    -0.00073083
H        -4.42379984    -1.80088421     0.52420670     0.00000989     0.00076777     0.00033023
C        -3.82350012     0.25502088    -0.00062163    -0.00059685     0.00013648    -0.00011302
C        -2.44803069     0.34385333     0.28266514     0.00009923    -0.00013394     0.00009128
H        -4.32863875     1.11971394    -0.47556030     0.00175229    -0.00037743     0.00099942
H        -1.91948309    -0.44659343     0.79954222     0.00025298     0.00016121    -0.00007181
C        -1.90769014     1.61557309     0.04145264     0.00027914     0.00008753    -0.00007539
H        -2.52732393     2.36240083    -0.46521158     0.00091911    -0.00115966     0.00065839
N        -0.59621628     1.96716146     0.11033452     0.00030095     0.00021852     0.00011905
H        -0.27452226     2.86934389    -0.12174249    -0.00041378    -0.00032441    -0.00034459
H         0.16326303     1.43368247     0.42127547    -0.00087515     0.00033470    -0.00140310
    14
  Step:     7            Position(A)                                  Velocity(au)
C        -6.00683293    -0.52105485    -0.20308480    -0.00076071    -0.00017684    -0.00010623
C        -4.72034321    -0.81050135     0.15954494     0.00060684    -0.00010535     0.00013194
H        -6.29956307     0.45561522    -0.50076495     0.00024776     0.00068007    -0.00016263
H        -6.82445277    -1.24870890    -0.04429310    -0.00180955    -0.00096284    -0.00079312
H        -4.42381736    -1.79209399     0.52779438     0.00000080     0.00080922     0.00033579
C        -3.83043362     0.25645388    -0.00198130    -0.00066443     0.00012099    -0.00013206
C        -2.44663230     0.34256538     0.28375833     0.00015598    -0.00009909     0.00010748
H        -4.30864596     1.11558980    -0.46424444     0.00185680    -0.00032665     0.00103775
H        -1.91643054    -0.44504118     0.79864713     0.00030655     0.00011551    -0.00008767
C        -1.90455750     1.61648543     0.04055097     0.00029652     0.00007344    -0.00008670
H        -2.51734654     2.34963878    -0.45755948     0.00086935    -0.00112719     0.00071217
N        -0.59300491     1.96956058     0.11163919     0.00027906     0.00022127     0.00011817
H        -0.27905248     2.86762387    -0.12609873    -0.00040147     0.00003510    -0.00045840
H         0.15487441     1.43537345     0.40686832    -0.00058947    -0.00007145    -0.00120634
    14
  Step:     8            Position(A)                                  Velocity(au)
C        -6.01544002    -0.52315298    -0.20419632    -0.00080983    -0.00020716    -0.00009645
C        -4.71353106    -0.81164921     0.16101185     0.00063076    -0.00010015     0.00013358
H        -6.29701587     0.46411125    -0.50306477     0.00021986     0.00084247    -0.00024827
H        -6.84380299    -1.25890895    -0.05332916    -0.00169667    -0.00087476    -0.00086065
H        -4.42378239    -1.78318104     0.53155283     0.00002037     0.00078792     0.00036276
C        -3.83803577     0.25766780    -0.00351067    -0.00071828     0.00009577    -0.00014362
C        -2.44461827     0.34168548     0.28501655     0.00021116    -0.00005999     0.00012149
H        -4.28801776     1.11256791    -0.45285761     0.00186519    -0.00016862     0.00100917
H        -1.91277667    -0.44406646     0.79762433     0.00036223     0.00005747    -0.00009602
C        -1.90120329     1.61717977     0.03955601     0.00031982     0.00004796    -0.00009239
H        -2.50830514     2.33774140    -0.44963158     0.00074652    -0.00100035     0.00070781
N        -0.59011124     1.97200207     0.11291970     0.00024579     0.00022633     0.00011520
H        -0.28330524     2.87011174    -0.13177092    -0.00037002     0.00041992    -0.00057842
H         0.15036733     1.43211930     0.39488445    -0.00019753    -0.00054500    -0.00097501
    14
  Step:     9            Position(A)                                  Velocity(au)
C        -6.02454946    -0.52558693    -0.20519485    -0.00085280    -0.00023697    -0.00008611
C        -4.70654403    -0.81269238     0.16246727     0.00063949    -0.00008657     0.00013004
H        -6.29475322     0.47404594    -0.50619625     0.00019668     0.00093683    -0.00031278
H        -6.86157067    -1.26784589    -0.06312147    -0.00152820    -0.00073872    -0.00092960
H        -4.42337177    -1.77485677     0.53573047     0.00006911     0.00070257     0.00041250
C        -3.84614747     0.25854904    -0.00512319    -0.00075681     0.00006040    -0.00014721
C        -2.44201269     0.34125299     0.28641620     0.00026318    -0.00001824     0.00013341
H        -4.26784128     1.11190103    -0.44216691     0.00177623     0.00010364     0.00091156
H        -1.90850602    -0.44378386     0.79654656     0.00041829    -0.00000865    -0.00009898
C        -1.89756074     1.61753466     0.03852966     0.00034894     0.00001241    -0.00009278
H        -2.50101503     2.32775422    -0.44207480     0.00055268    -0.00078291     0.00064743
N        -0.58762788     1.97451189     0.11415942     0.00020775     0.00023330     0.00011139
H        -0.28714745     2.87681052    -0.13875269    -0.00033336     0.00077967    -0.00069056
H         0.15055317     1.42345062     0.38553808     0.00022736    -0.00102927    -0.00074097
    14
  Step:    10            Position(A)                                  Velocity(au)
C        -6.03409666    -0.52833719    -0.20608003    -0.00088986    -0.00026409    -0.00007608
C        -4.69954091    -0.81354313     0.16385681     0.00063419    -0.00006594     0.00012190
H        -6.29271304     0.48460618    -0.50990743     0.00017899     0.00095477    -0.00035361
H        -6.87723521    -1.27506990    -0.07366585    -0.00132028    -0.00056868    -0.00099665
H        -4.42227054    -1.76781100     0.54057716     0.00014483     0.00055924     0.00048346
C        -3.85459241     0.25898914    -0.00673109    -0.00077870     0.00001659    -0.00014326
C        -2.43886070     0.34128638     0.28793504     0.00031001     0.00002412     0.00014337
H        -4.24915932     1.11483524    -0.43291550     0.00160017     0.00047822     0.00075292
H        -1.90362569    -0.44425578     0.79545902     0.00047241    -0.00007777    -0.00009931
C        -1.89356960     1.61745135     0.03752636     0.00038267    -0.00003047    -0.00008893
H        -2.49621415     2.32061377    -0.43546783     0.00030075    -0.00049174     0.00054183
N        -0.58556623     1.97710592     0.11535650     0.00017223     0.00024097     0.00010796
H        -0.29059814     2.88716845    -0.14687818    -0.00030385     0.00106825    -0.00078116
H         0.15534128     1.40960214     0.37867432     0.00060501    -0.00146019    -0.00053537
    14
  Step:    11            Position(A)                                  Velocity(au)
C        -6.04401689    -0.53136436    -0.20685921    -0.00092073    -0.00028704    -0.00006690
C        -4.69266981    -0.81413499     0.16513409     0.00061563    -0.00004075     0.00011004
H        -6.29083749     0.49493330    -0.51393213     0.00016558     0.00089574    -0.00037053
H        -6.89045440    -1.28028680    -0.08492502    -0.00108909    -0.00037884    -0.00105908
H        -4.42020334    -1.76262225     0.54630717     0.00024257     0.00037211     0.00057061
C        -3.86318297     0.25891188    -0.00825723    -0.00078343    -0.00003148    -0.00013331
C        -2.43523065     0.34178073     0.28955267     0.00034977     0.00006507     0.00015157
H        -4.23283451     1.12236300    -0.42569537     0.00135863     0.00091978     0.00055269
H        -1.89817106    -0.44548533     0.79437402     0.00052188    -0.00014439    -0.00010009
C        -1.88918900     1.61686809     0.03658415     0.00041873    -0.00007691    -0.00008266
H        -2.49443546     2.31699637    -0.43022133     0.00001469    -0.00015651     0.00041009
N        -0.58386002     1.97978357     0.11652136     0.00014529     0.00024788     0.00010579
H        -0.29379466     2.90018047    -0.15584215    -0.00028985     0.00125225    -0.00083955
H         0.16378890     1.39150607     0.37382583     0.00087005    -0.00178238    -0.00038091
    14
  Step:    12            Position(A)                                  Velocity(au)
C        -6.05423940    -0.53461682    -0.20754351    -0.00094464    -0.00030501    -0.00005876
C        -4.68607290    -0.81443462     0.16626411     0.00058420    -0.00001438     0.00009561
H        -6.28909066     0.50420216    -0.51801343     0.00015398     0.00076570    -0.00036524
H        -6.90106105    -1.28335778    -0.09683524    -0.00085040    -0.00018333    -0.00111474
H        -4.41696380    -1.75967028     0.55306033     0.00035507     0.00016225     0.00066570
C        -3.87173138     0.25830049    -0.00964753    -0.00077143    -0.00007759    -0.00011982
C        -2.43120890     0.34270982     0.29125102     0.00038119     0.00010286     0.00015825
H        -4.21943660     1.13495718    -0.42082433     0.00108026     0.00137297     0.00033887
H        -1.89220849    -0.44741465     0.79326945     0.00056390    -0.00020314    -0.00010433
C        -1.88440911     1.61576871     0.03571797     0.00045401    -0.00012271    -0.00007617
H        -2.49589286     2.31718989    -0.42649628    -0.00027385     0.00018478     0.00027639
N        -0.58238772     1.98252869     0.11767091     0.00013058     0.00025285     0.00010518
H        -0.29693913     2.91456380    -0.16524488    -0.00029476     0.00131519    -0.00085960
H         0.17437535     1.37060916     0.37034120     0.00098628    -0.00196128    -0.00028791
    14
  Step:    13            Position(A)                                  Velocity(au)
C        -6.06468276    -0.53803696    -0.20814467    -0.00096050    -0.00031762    -0.00005163
C        -4.67988941    -0.81444954     0.16722566     0.00054014     0.00000936     0.00007991
H        -6.28746880     0.51168453    -0.52192247     0.00014115     0.00057540    -0.00034087
H        -6.90905858    -1.28429751    -0.10931203    -0.00061971     0.00000386    -0.00116195
H        -4.41243557    -1.75907268     0.56087059     0.00047369    -0.00004536     0.00075833
C        -3.88005947     0.25721451    -0.01087851    -0.00074382    -0.00011480    -0.00010555
C        -2.42689147     0.34403095     0.29301464     0.00040376     0.00013623     0.00016363
H        -4.20920185     1.15239928    -0.41828203     0.00079356     0.00177472     0.00014125
H        -1.88583473    -0.44992942     0.79209167     0.00059586    -0.00024931    -0.00011461
C        -1.87925656     1.61418366     0.03491774     0.00048533    -0.00016389    -0.00007158
H        -2.50042652     2.32103870    -0.42417478    -0.00053188     0.00049333     0.00016460
N        -0.58100323     1.98531525     0.11882236     0.00012909     0.00025531     0.00010596
H        -0.30024302     2.92895288    -0.17464749    -0.00031743     0.00125716    -0.00084010
H         0.18536572     1.34859924     0.36752732     0.00094869    -0.00198686    -0.00025514
    14
  Step:    14            Position(A)                                  Velocity(au)
C        -6.07525223    -0.54156528    -0.20867295    -0.00096703    -0.00032480    -0.00004531
C        -4.67425622    -0.81422981     0.16801235     0.00048373     0.00002680     0.00006427
H        -6.28600272     0.51679016    -0.52547065     0.00012402     0.00033847    -0.00030139
H        -6.91461831    -1.28327326    -0.12225522    -0.00041222     0.00016885    -0.00119952
H        -4.40660083    -1.76066257     0.56965019     0.00058967    -0.00022594     0.00083757
C        -3.88800376     0.25578894    -0.01195675    -0.00070193    -0.00013706    -0.00009292
C        -2.42237581     0.34569010     0.29483077     0.00041765     0.00016438     0.00016795
H        -4.20207602     1.17378255    -0.41773419     0.00052059     0.00207031    -0.00001604
H        -1.87917296    -0.45286878     0.79076205     0.00061569    -0.00027932    -0.00013281
C        -1.87379164     1.61218333     0.03415202     0.00051002    -0.00019737    -0.00007049
H        -2.50752876     2.32798253    -0.42289533    -0.00073200     0.00073751     0.00009306
N        -0.57956364     1.98811408     0.11998893     0.00013966     0.00025514     0.00010770
H        -0.30388351     2.94206667    -0.18362360    -0.00035336     0.00109142    -0.00078405
H         0.19512983     1.32714269     0.36475961     0.00077595    -0.00186939    -0.00027363
    14
  Step:    15            Position(A)                                  Velocity(au)
C        -6.08583841    -0.54514261    -0.20913584    -0.00096294    -0.00032667    -0.00003951
C        -4.66930688    -0.81386327     0.16863177     0.00041541     0.00003497     0.00004985
H        -6.28475571     0.51908915    -0.52851594     0.00009984     0.00007014    -0.00025122
H        -6.91807675    -1.28060363    -0.13555389    -0.00024270     0.00029806    -0.00122673
H        -4.39953548    -1.76401565     0.57919412     0.00069516    -0.00035903     0.00089379
C        -3.89541565     0.25421616    -0.01291132    -0.00064711    -0.00014042    -0.00008346
C        -2.41775467     0.34762709     0.29668894     0.00042341     0.00018693     0.00017139
H        -4.19781306     1.19769117    -0.41863285     0.00027402     0.00222572    -0.00011940
H        -1.87236540    -0.45604005     0.78918626     0.00062203    -0.00029101    -0.00015988
C        -1.86809889     1.60986577     0.03337573     0.00052643    -0.00022127    -0.00007373
H        -2.51644041     2.33717308    -0.42213902    -0.00085707     0.00089777     0.00007150
N        -0.57794785     1.99089685     0.12117859     0.00015991     0.00025247     0.00010996
H        -0.30797334     2.95282981    -0.19180019    -0.00039606     0.00083993    -0.00069757
H         0.20234103     1.30770275     0.36154122     0.00049955    -0.00163171    -0.00033093
    14
  Step:    16            Position(A)                                  Velocity(au)
C        -6.09631836    -0.54871174    -0.20953739    -0.00094711    -0.00032347    -0.00003391
C        -4.66516840    -0.81346467     0.16910285     0.00033598     0.00003211     0.00003748
H        -6.28381853     0.51832457    -0.53096661     0.00006639    -0.00021352    -0.00019503
H        -6.91992784    -1.27675254    -0.14909239    -0.00012470     0.00037893    -0.00124348
H        -4.39139291    -1.76851694     0.58920362     0.00078409    -0.00043126     0.00092004
C        -3.90216047     0.25271709    -0.01378252    -0.00058064    -0.00012361    -0.00007772
C        -2.41311281     0.34977946     0.29858030     0.00042186     0.00020381     0.00017406
H        -4.19608122     1.22247452    -0.42034625     0.00005822     0.00223122    -0.00016616
H        -1.86556479    -0.45923514     0.78726433     0.00061438    -0.00028377    -0.00019589
C        -1.86227494     1.60734253     0.03253913     0.00053399    -0.00023493    -0.00008137
H        -2.52627877     2.34762297    -0.42133115    -0.00090133     0.00096771     0.00010100
N        -0.57606539     1.99363745     0.12239456     0.00018691     0.00024748     0.00011238
H        -0.31254817     2.96044170    -0.19888434    -0.00043834     0.00052941    -0.00058873
H         0.20605855     1.29144587     0.35751981     0.00015507    -0.00130227    -0.00041420
    14
  Step:    17            Position(A)                                  Velocity(au)
C        -6.10655827    -0.55221909    -0.20987770    -0.00091879    -0.00031566    -0.00002813
C        -4.66195667    -0.81316074     0.16945180     0.00024673     0.00001784     0.00002765
H        -6.28330335     0.51441794    -0.53278264     0.00002197    -0.00049608    -0.00013757
H        -6.92080471    -1.27231388    -0.16275732    -0.00006928     0.00040098    -0.00125032
H        -4.38238193    -1.77345019     0.59932184     0.00085244    -0.00043751     0.00091280
C        -3.90811826     0.25151197    -0.01461166    -0.00050404    -0.00008777    -0.00007550
C        -2.40852573     0.35208576     0.30049682     0.00041383     0.00021522     0.00017600
H        -4.19653942     1.24650342    -0.42226786    -0.00012774     0.00209674    -0.00016163
H        -1.85892458    -0.46224795     0.78490085     0.00059313    -0.00025852    -0.00023999
C        -1.85641687     1.60472632     0.03159554     0.00053302    -0.00023861    -0.00009293
H        -2.53615863     2.35834363    -0.41992950    -0.00086841     0.00095161     0.00017604
N        -0.57385878     1.99631105     0.12363706     0.00021769     0.00024022     0.00011475
H        -0.31756278     2.96441163    -0.20467983    -0.00047288     0.00018880    -0.00046682
H         0.20573341     1.27921313     0.35247975    -0.00022274    -0.00091083    -0.00051164
    14
  Step:    18            Position(A)                                  Velocity(au)
C        -6.11641867    -0.55561749    -0.21015272    -0.00087780    -0.00030406    -0.00002177
C        -4.65977061    -0.81307431     0.16970784     0.00014948    -0.00000681     0.00002045
H        -6.28333790     0.50747178    -0.53397613    -0.00003457    -0.00076094    -0.00008359
H        -6.92144357    -1.26798038    -0.17644560    -0.00008292     0.00035777    -0.00124858
H        -4.37274407    -1.77808821     0.60917287     0.00089808    -0.00038003     0.00087183
C        -3.91318725     0.25079695    -0.01543419    -0.00041918    -0.00003580    -0.00007608
C        -2.40405945     0.35448787     0.30243056     0.00040018     0.00022156     0.00017718
H        -4.19887575     1.26834463    -0.42388229    -0.00028697     0.00184393    -0.00011528
H        -1.85258904    -0.46489078     0.78201415     0.00055950    -0.00021762    -0.00029058
C        -1.85061403     1.60212259     0.03050613     0.00052448    -0.00023318    -0.00010757
H        -2.54527686     2.36844124    -0.41748001    -0.00076799     0.00086059     0.00028737
N        -0.57130310     1.99889278     0.12490499     0.00024929     0.00023064     0.00011703
H        -0.32289338     2.96457203    -0.20909687    -0.00049276    -0.00015225    -0.00034183
H         0.20118569     1.27151965     0.34632678    -0.00060122    -0.00048707    -0.00061278
    14
  Step:    19            Position(A)                                  Velocity(au)
C        -6.12576179    -0.55887091    -0.21035389    -0.00082472    -0.00028996    -0.00001441
C        -4.65868661    -0.81330981     0.16989923     0.00004650    -0.00003964     0.00001564
H        -6.28405970     0.49777094    -0.53461142    -0.00010391    -0.00099149    -0.00003788
H        -6.92261881    -1.26448696    -0.19007247    -0.00016506     0.00024901    -0.00124017
H        -4.36273477    -1.78176406     0.61839486     0.00092040    -0.00026672     0.00079962
C        -3.91728867     0.25072870    -0.01627615    -0.00032839     0.00002828    -0.00007856
C        -2.39977104     0.35693283     0.30437305     0.00038168     0.00022335     0.00017755
H        -4.20281744     1.28684292    -0.42478994    -0.00042288     0.00149899    -0.00003765
H        -1.84668440    -0.46700877     0.77854395     0.00051551    -0.00016457    -0.00034545
C        -1.84494291     1.59962506     0.02924228     0.00050961    -0.00021980    -0.00012434
H        -2.55295978     2.37717067    -0.41364265    -0.00061262     0.00070918     0.00042442
N        -0.56840508     2.00135684     0.12619727     0.00027885     0.00021870     0.00011924
H        -0.32834295     2.96108084    -0.21215801    -0.00049161    -0.00046418    -0.00022420
H         0.19258065     1.26855748     0.33907401    -0.00094914    -0.00006102    -0.00070820
    14
  Step:    20            Position(A)                                  Velocity(au)
C        -6.13446100    -0.56196094    -0.21046801    -0.00076104    -0.00027532    -0.00000565
C        -4.65875328    -0.81394154     0.17005005    -0.00005951    -0.00007752     0.00001273
H        -6.28561117     0.48578109    -0.53480472    -0.00018626    -0.00117161    -0.00000505
H        -6.92505467    -1.26253272    -0.20357661    -0.00030622     0.00008234    -0.00122721
H        -4.35260864    -1.78392320     0.62666615     0.00091997    -0.00010925     0.00070064
C        -3.92037148     0.25141563    -0.01715289    -0.00023436     0.00009990    -0.00008196
C        -2.39570942     0.35937398     0.30631483     0.00035905     0.00022119     0.00017699
H        -4.20812704     1.30113787    -0.42470605    -0.00053834     0.00108800     0.00006135
H        -1.84131129    -0.46849113     0.77445687     0.00046373    -0.00010377    -0.00040198
C        -1.83946539     1.59731412     0.02778586     0.00048976    -0.00019967    -0.00014233
H        -2.55867914     2.38395597    -0.40819494    -0.00041553     0.00051289     0.00057682
N        -0.56520271     2.00367726     0.12751367     0.00030350     0.00020451     0.00012148