     6
  Step:     0            Position(A)                                  Velocity(au)
C        -0.04063623     0.01986427     0.00181167    -0.00000821     0.00007624    -0.00007509
N        -0.04232754    -0.04814980     1.31394993    -0.00020902    -0.00002593     0.00000954
H         0.91868556    -0.05659546    -0.51592490     0.00030080    -0.00032733    -0.00034924
H         0.85568447    -0.15006478     1.85069532     0.00072280    -0.00001052     0.00082420
H        -0.93784314    -0.09757466     1.80435369     0.00162745     0.00007578    -0.00045206
H        -0.97704248     0.06685913    -0.52778176     0.00035145    -0.00028608     0.00073931
     6
  Step:     1            Position(A)                                  Velocity(au)
C        -0.04065864     0.02031468     0.00111499     0.00000084     0.00008842    -0.00017906
N        -0.04345408    -0.04829014     1.31425419    -0.00020048    -0.00002542     0.00010105
H         0.92038414    -0.05848833    -0.51789502     0.00031643    -0.00036438    -0.00036914
H         0.85946950    -0.15022018     1.85512854     0.00065019    -0.00004483     0.00078964
H        -0.92908358    -0.09727163     1.80203932     0.00155326     0.00003400    -0.00038269
H        -0.97536351     0.06518752    -0.52385685     0.00025613    -0.00032509     0.00069155
     6
  Step:     2            Position(A)                                  Velocity(au)
C        -0.04062704     0.02083141    -0.00014687     0.00001145     0.00010046    -0.00028136
N        -0.04452044    -0.04842789     1.31505527    -0.00018714    -0.00002496     0.00019078
H         0.92214677    -0.06058112    -0.51996257     0.00032448    -0.00040036    -0.00038518
H         0.86279637    -0.15055512     1.85933256     0.00055693    -0.00007627     0.00074154
H        -0.92085332    -0.09720271     1.80016773     0.00143410    -0.00000975    -0.00029006
H        -0.97424091     0.06330321    -0.52021747     0.00014872    -0.00036381     0.00063518
     6
  Step:     3            Position(A)                                  Velocity(au)
C        -0.04053340     0.02141347    -0.00196241     0.00002342     0.00011227    -0.00038111
N        -0.04550101    -0.04856318     1.31634091    -0.00016929    -0.00002450     0.00027784
H         0.92393318    -0.06286732    -0.52210806     0.00032543    -0.00043502    -0.00039795
H         0.86556104    -0.15105439     1.86323936     0.00044632    -0.00010504     0.00068210
H        -0.91339777    -0.09737823     1.79886674     0.00127090    -0.00005528    -0.00017445
H        -0.97373684     0.06120824    -0.51690944     0.00003086    -0.00040206     0.00057077
     6
  Step:     4            Position(A)                                  Velocity(au)
C        -0.04037092     0.02205945    -0.00431546     0.00003648     0.00012377    -0.00047742
N        -0.04637211    -0.04869588     1.31809421    -0.00014734    -0.00002399     0.00036136
H         0.92570634    -0.06533936    -0.52431528     0.00031994    -0.00046815    -0.00040798
H         0.86767816    -0.15170398     1.86679329     0.00032184    -0.00013135     0.00061353
H        -0.90695228    -0.09780738     1.79825964     0.00106647    -0.00010235    -0.00003734
H        -0.97390340     0.05890551    -0.51397443    -0.00009538    -0.00043965     0.00049923
     6
  Step:     5            Position(A)                                  Velocity(au)
C        -0.04013434     0.02276739    -0.00718512     0.00005033     0.00013483    -0.00056933
N        -0.04711284    -0.04882558     1.32029394    -0.00012189    -0.00002337     0.00044053
H         0.92743312    -0.06798853    -0.52657113     0.00030872    -0.00049948    -0.00041579
H         0.86908171    -0.15249125     1.86995103     0.00018713    -0.00015544     0.00053811
H        -0.90173127    -0.09849782     1.79845822     0.00082571    -0.00015058     0.00011841
H        -0.97478019     0.05639880    -0.51144818    -0.00022740    -0.00047635     0.00042178
     6
  Step:     6            Position(A)                                  Velocity(au)
C        -0.03982019     0.02353482    -0.01054547     0.00006460     0.00014533    -0.00065581
N        -0.04770592    -0.04895161     1.32291472    -0.00009369    -0.00002260     0.00051451
H         0.92908458    -0.07080498    -0.52886518     0.00029256    -0.00052874    -0.00042176
H         0.86972588    -0.15340495     1.87268161     0.00004608    -0.00017757     0.00045810
H        -0.89791681    -0.09945510     1.79955539     0.00055572    -0.00019948     0.00028857
H        -0.97639175     0.05369293    -0.50935899    -0.00036215    -0.00051191     0.00033992
     6
  Step:     7            Position(A)                                  Velocity(au)
C        -0.03942710     0.02435857    -0.01436525     0.00007886     0.00015513    -0.00073572
N        -0.04813856    -0.04907305     1.32592707    -0.00006364    -0.00002164     0.00058247
H         0.93063619    -0.07377744    -0.53118881     0.00027226    -0.00055557    -0.00042611
H         0.86958618    -0.15443536     1.87496658    -0.00009719    -0.00019797     0.00037587
H        -0.89564696    -0.10068183     1.80161762     0.00026572    -0.00024837     0.00046749
H        -0.97874520     0.05079412    -0.50772654    -0.00049611    -0.00054594     0.00025534
     6
  Step:     8            Position(A)                                  Velocity(au)
C        -0.03895604     0.02523473    -0.01860736     0.00009266     0.00016405    -0.00080785
N        -0.04840327    -0.04918873     1.32929739    -0.00003282    -0.00002044     0.00064358
H         0.93206799    -0.07689288    -0.53353447     0.00024875    -0.00057958    -0.00042905
H         0.86866085    -0.15557425     1.87680033    -0.00023820    -0.00021688     0.00029387
H        -0.89500505    -0.10217672     1.80467812    -0.00003319    -0.00029638     0.00064839
H        -0.98182806     0.04771056    -0.50656100    -0.00062538    -0.00057796     0.00016988
     6
  Step:     9            Position(A)                                  Velocity(au)
C        -0.03841055     0.02615841    -0.02322844     0.00010548     0.00017189    -0.00087094
N        -0.04849859    -0.04929729     1.33298791    -0.00000240    -0.00001898     0.00069696
H         0.93336529    -0.08013614    -0.53589605     0.00022302    -0.00060027    -0.00043078
H         0.86697276    -0.15681482     1.87819066    -0.00037216    -0.00023453     0.00021467
H        -0.89601108    -0.10393350     1.80873125    -0.00032859    -0.00034244     0.00082361
H        -0.98560642     0.04445311    -0.50586269    -0.00074580    -0.00060736     0.00008544
     6
  Step:    10            Position(A)                                  Velocity(au)
C        -0.03779686     0.02712373    -0.02817849     0.00011683     0.00017845    -0.00092369
N        -0.04842964    -0.04939726     1.33695659     0.00002637    -0.00001723     0.00074179
H         0.93451884    -0.08348951    -0.53826849     0.00019611    -0.00061714    -0.00043145
H         0.86457103    -0.15815164     1.87915940    -0.00049402    -0.00025114     0.00014095
H        -0.89861611    -0.10593990     1.81372912    -0.00060750    -0.00038532     0.00098521
H        -0.99002392     0.04103602    -0.50562206    -0.00085314    -0.00063341     0.00000388
     6
  Step:    11            Position(A)                                  Velocity(au)
C        -0.03712393     0.02812365    -0.03340074     0.00023701     0.00034461    -0.00181186
N        -0.04820820    -0.04948704     1.34115698     0.00009816    -0.00002854     0.00145951
H         0.93552497    -0.08693257    -0.54064749     0.00031748    -0.00118242    -0.00080964
H         0.86153227    -0.15958056     1.87974289    -0.00112424    -0.00050118     0.00014158
H        -0.90270134    -0.10817690     1.81958111    -0.00160989    -0.00079567     0.00211356
H        -0.99500182     0.03747753    -0.50582002    -0.00177153    -0.00123058    -0.00013715
     6
  Step:    12            Position(A)                                  Velocity(au)
C        -0.03579998     0.03001376    -0.04320199     0.00023396     0.00032951    -0.00168108
N        -0.04760100    -0.04964078     1.34908384     0.00011480    -0.00002611     0.00136516
H         0.93746179    -0.09347045    -0.54542983     0.00037177    -0.00115020    -0.00089364
H         0.85512630    -0.16227103     1.88041214    -0.00114297    -0.00046050     0.00010751
H        -0.91222459    -0.11259911     1.83162623    -0.00175265    -0.00077939     0.00216107
H        -1.00522312     0.03074182    -0.50711424    -0.00185924    -0.00117354    -0.00031386
     6
  Step:    13            Position(A)                                  Velocity(au)
C        -0.03449865     0.03182112    -0.05226445     0.00022478     0.00030934    -0.00152119
N        -0.04692000    -0.04978001     1.35647570     0.00012222    -0.00002298     0.00124634
H         0.93969664    -0.09983922    -0.55067523     0.00041481    -0.00110136    -0.00095618
H         0.84870681    -0.16474792     1.88094923    -0.00110843    -0.00041735     0.00009254
H        -0.92236814    -0.11692256     1.84383094    -0.00179833    -0.00074637     0.00213148
H        -1.01586476     0.02430905    -0.50934188    -0.00188494    -0.00110166    -0.00046082
     6
  Step:    14            Position(A)                                  Velocity(au)
C        -0.03325362     0.03351801    -0.06043448     0.00021185     0.00028732    -0.00135188
N        -0.04621642    -0.04990111     1.36320273     0.00012173    -0.00001953     0.00111869
H         0.94216083    -0.10594693    -0.55626162     0.00044691    -0.00104621    -0.00100254
H         0.84256970    -0.16699890     1.88146042    -0.00103306    -0.00037652     0.00009644
H        -0.93259659    -0.12105416     1.85577213    -0.00176646    -0.00070390     0.00204761
H        -1.02657615     0.01826193    -0.51233458    -0.00186345    -0.00102562    -0.00057814
     6
  Step:    15            Position(A)                                  Velocity(au)
C        -0.03208519     0.03509430    -0.06766521     0.00019774     0.00026656    -0.00119010
N        -0.04553318    -0.05000255     1.36921992     0.00011535    -0.00001608     0.00099599
H         0.94478789    -0.11175784    -0.56209628     0.00047064    -0.00099533    -0.00104152
H         0.83693808    -0.16903724     1.88204785    -0.00093144    -0.00034197     0.00011785
H        -0.94249195    -0.12494154     1.86715761    -0.00168329    -0.00065976     0.00193615
H        -1.03709349     0.01262503    -0.51592811    -0.00181510    -0.00095574    -0.00067184
     6
  Step:    16            Position(A)                                  Velocity(au)
C        -0.03099940     0.03655678    -0.07400175     0.00004250     0.00005744    -0.00024113
N        -0.04490137    -0.05008447     1.37455714     0.00002419    -0.00000295     0.00020443
H         0.94752620    -0.11729378    -0.56813508     0.00011275    -0.00022047    -0.00024941
H         0.83195115    -0.17089736     1.88280389    -0.00018790    -0.00007284     0.00003579
H        -0.95178629    -0.12857551     1.87784453    -0.00036229    -0.00014285     0.00041920
H        -1.04726854     0.00736633    -0.51999362    -0.00040517    -0.00020726    -0.00017299
     6
  Step:    17            Position(A)                                  Velocity(au)
C        -0.03077210     0.03688433    -0.07538597     0.00003835     0.00005912    -0.00025125
N        -0.04478284    -0.05009044     1.37573232     0.00001769     0.00000076     0.00021356
H         0.94804723    -0.11854906    -0.56951416     0.00007327    -0.00022631    -0.00024159
H         0.83107610    -0.17141032     1.88309546    -0.00012275    -0.00010932     0.00006869
H        -0.95369719    -0.12941721     1.88010094    -0.00031495    -0.00015615     0.00038266
H        -1.04935930     0.00615607    -0.52099880    -0.00033831    -0.00022318    -0.00018357
     6
  Step:    18            Position(A)                                  Velocity(au)
C        -0.03056873     0.03722072    -0.07682357     0.00003446     0.00006140    -0.00026357
N        -0.04470271    -0.05007597     1.37695567     0.00001079     0.00000438     0.00022453
H         0.94834911    -0.11983548    -0.57084842     0.00003542    -0.00023467    -0.00023667
H         0.83057255    -0.17212518     1.88357533    -0.00005733    -0.00014657     0.00010363
H        -0.95532353    -0.13032920     1.88214222    -0.00026537    -0.00017021     0.00034766
H        -1.05106806     0.00485978    -0.52205529    -0.00027328    -0.00024108    -0.00019406
     6
  Step:    19            Position(A)                                  Velocity(au)
C        -0.03038772     0.03756925    -0.07832639     0.00003064     0.00006405    -0.00027713
N        -0.04466243    -0.05004152     1.37823721     0.00000357     0.00000799     0.00023659
H         0.94844238    -0.12116698    -0.57215443    -0.00000128    -0.00024473    -0.00023371
H         0.83043657    -0.17304539     1.88425152     0.00000813    -0.00018451     0.00013978
H        -0.95665763    -0.13131608     1.88397946    -0.00021301    -0.00018476     0.00031286
H        -1.05240796     0.00346658    -0.52316375    -0.00020851    -0.00026031    -0.00020429
     6
  Step:    20            Position(A)                                  Velocity(au)
C        -0.03022853     0.03793200    -0.07990098     0.00002679     0.00006693    -0.00029119
N        -0.04466307    -0.04998724     1.37958283    -0.00000384     0.00001160     0.00024916
H         0.94833485    -0.12255305    -0.57344364    -0.00003689    -0.00025593    -0.00023216
H         0.83066286    -0.17417409     1.88512752     0.00007265    -0.00022291     0.00017613
H        -0.95768886    -0.13238087     1.88561640    -0.00015811    -0.00019958     0.00027772
H        -1.05338345     0.00196919    -0.52432378    -0.00014343    -0.00028035    -0.00021417
     6
  Step:    21            Position(A)                                  Velocity(au)
C        -0.03009120     0.03831019    -0.08154989     0.00002286     0.00006993    -0.00030524
N        -0.04470495    -0.04991311     1.38099534    -0.00001125     0.00001522     0.00026186
H         0.94803398    -0.12400007    -0.57472437    -0.00007122    -0.00026790    -0.00023173
H         0.83124081    -0.17551303     1.88620127     0.00013484    -0.00026145     0.00021159
H        -0.95840789    -0.13352544     1.88705377    -0.00010148    -0.00021457     0.00024226
H        -1.05399572     0.00036310    -0.52553455    -0.00007812    -0.00030087    -0.00022376
     6
  Step:    22            Position(A)                                  Velocity(au)
C        -0.02997603     0.03870448    -0.08327284     0.00001885     0.00007298    -0.00031893
N        -0.04478738    -0.04981911     1.38247548    -0.00001846     0.00001885     0.00027445
H         0.94754818    -0.12551242    -0.57600339    -0.00010395    -0.00028044    -0.00023232
H         0.83215234    -0.17706224     1.88746486     0.00019314    -0.00029982     0.00024510
H        -0.95880984    -0.13475108     1.88829249    -0.00004425    -0.00022970     0.00020687
H        -1.05424637    -0.00135430    -0.52679552    -0.00001303    -0.00032162    -0.00023322
     6
  Step:    23            Position(A)                                  Velocity(au)
C        -0.02988332     0.03911515    -0.08506766     0.00001477     0.00007604    -0.00033200
N        -0.04490852    -0.04970519     1.38402258    -0.00002523     0.00002249     0.00028676
H         0.94688743    -0.12709331    -0.57728683    -0.00013475    -0.00029341    -0.00023392
H         0.83337113    -0.17882001     1.88890469     0.00024600    -0.00033770     0.00027565
H        -0.95889602    -0.13605899     1.88933556     0.00001225    -0.00024501     0.00017214
H        -1.05413946    -0.00318443    -0.52810694     0.00005116    -0.00034249    -0.00024276
     6
  Step:    24            Position(A)                                  Velocity(au)
C        -0.02981331     0.03954229    -0.08693082     0.00001065     0.00007908    -0.00034427
N        -0.04506540    -0.04957132     1.38563508    -0.00003138     0.00002613     0.00029867
H         0.94606350    -0.12874526    -0.57858072    -0.00016327    -0.00030675    -0.00023656
H         0.83486280    -0.18078304     1.89050196     0.00029199    -0.00037483     0.00030235
H        -0.95867488    -0.13745058     1.89018912     0.00006665    -0.00026057     0.00013873
H        -1.05368266    -0.00512795    -0.52947024     0.00011369    -0.00036339    -0.00025263
     6
  Step:    25            Position(A)                                  Velocity(au)
C        -0.02976603     0.03998582    -0.08885782     0.00000654     0.00008210    -0.00035561
N        -0.04525394    -0.04941748     1.38731073    -0.00003669     0.00002978     0.00031009
H         0.94508993    -0.13047038    -0.57989122    -0.00018919    -0.00032041    -0.00024031
H         0.83658568    -0.18294657     1.89223333     0.00032985    -0.00041096     0.00032445
H        -0.95816229    -0.13892768     1.89086289     0.00011755    -0.00027649     0.00010736
H        -1.05288779    -0.00718511    -0.53088817     0.00017375    -0.00038427    -0.00026309
     6
  Step:    26            Position(A)                                  Velocity(au)
C        -0.02974133     0.04044558    -0.09084344     0.00000248     0.00008507    -0.00036592
N        -0.04546911    -0.04924367     1.38904681    -0.00004102     0.00003343     0.00032094
H         0.94398193    -0.13227052    -0.58122472    -0.00021221    -0.00033436    -0.00024521
H         0.83849199    -0.18530459     1.89407175     0.00035859    -0.00044588     0.00034136
H        -0.95738149    -0.14049268     1.89137032     0.00016364    -0.00029288     0.00007871
H        -1.05177103    -0.00935591    -0.53236485     0.00023049    -0.00040511    -0.00027440
     6
  Step:    27            Position(A)                                  Velocity(au)
C        -0.02973880     0.04092136    -0.09288191    -0.00000150     0.00008799    -0.00037510
N        -0.04570502    -0.04904988     1.39084014    -0.00004421     0.00003707     0.00033115
H         0.94275615    -0.13414739    -0.58258783    -0.00023209    -0.00034858    -0.00025130
H         0.84052918    -0.18785000     1.89598734     0.00037746    -0.00047941     0.00035263
H        -0.95636269    -0.14214855     1.89172846     0.00020367    -0.00030985     0.00005343
H        -1.05035299    -0.01164025    -0.53390577     0.00028313    -0.00042591    -0.00028680
     6
  Step:    28            Position(A)                                  Velocity(au)
C        -0.02975778     0.04141291    -0.09496702    -0.00000532     0.00009086    -0.00038310
N        -0.04595510    -0.04883610     1.39268721    -0.00004615     0.00004073     0.00034067
H         0.94143048    -0.13610253    -0.58398731    -0.00024863    -0.00036305    -0.00025861
H         0.84264152    -0.19057484     1.89794834     0.00038603    -0.00051141     0.00035803
H        -0.95514250    -0.14389891     1.89195768     0.00023654    -0.00032751     0.00003210
H        -1.04865856    -0.01403802    -0.53551770     0.00033087    -0.00044667    -0.00030052
     6
  Step:    29            Position(A)                                  Velocity(au)
C        -0.02979731     0.04191994    -0.09709227    -0.00000896     0.00009367    -0.00038987
N        -0.04621226    -0.04860230     1.39458416    -0.00004678     0.00004438     0.00034944
H         0.94002371    -0.13813736    -0.58542994    -0.00026167    -0.00037775    -0.00026712
H         0.84477175    -0.19347052     1.89992211     0.00038416    -0.00054180     0.00035746
H        -0.95376307    -0.14574795     1.89208125     0.00026133    -0.00034598     0.00001521
H        -1.04671670    -0.01654918    -0.53720856     0.00037300    -0.00046740    -0.00031576
     6
  Step:    30            Position(A)                                  Velocity(au)
C        -0.02985618     0.04244215    -0.09925088    -0.00001234     0.00009642    -0.00039538
N        -0.04646912    -0.04834845     1.39652681    -0.00004605     0.00004805     0.00035741
H         0.93855525    -0.14025315    -0.58692243    -0.00027115    -0.00039264    -0.00027683
H         0.84686266    -0.19652804     1.90187601     0.00037201    -0.00057051     0.00035101
H        -0.95227107    -0.14770044     1.89212479     0.00027731    -0.00036534     0.00000313
H        -1.04456005    -0.01917377    -0.53898727     0.00040889    -0.00048815    -0.00033269
     6
  Step:    31            Position(A)                                  Velocity(au)
C        -0.02993291     0.04297924    -0.10143595    -0.00001544     0.00009911    -0.00039961
N        -0.04671821    -0.04807446     1.39851074    -0.00004397     0.00005173     0.00036454
H         0.93704478    -0.14245096    -0.58847123    -0.00027705    -0.00040769    -0.00028766
H         0.84885867    -0.19973826     1.90377833     0.00034998    -0.00059755     0.00033892
H        -0.95071646    -0.14976159     1.89211560     0.00028402    -0.00038567    -0.00000390
H        -1.04222452    -0.02191202    -0.54086352     0.00043800    -0.00050893    -0.00035141
     6
  Step:    32            Position(A)                                  Velocity(au)
C        -0.03002575     0.04353088    -0.10364055    -0.00001819     0.00010174    -0.00040256
N        -0.04695212    -0.04778022     1.40053129    -0.00004057     0.00005543     0.00037079
H         0.93551191    -0.14473164    -0.59008236    -0.00027940    -0.00042286    -0.00029953
H         0.85070724    -0.20309213     1.90559904     0.00031878    -0.00062296     0.00032157
H        -0.94915113    -0.15193699     1.89208190     0.00028123    -0.00040702    -0.00000579
H        -1.03974868    -0.02476435    -0.54284756     0.00045988    -0.00052979    -0.00037202
     6
  Step:    33            Position(A)                                  Velocity(au)
C        -0.03013272     0.04409675    -0.10585776    -0.00002057     0.00010430    -0.00040425
N        -0.04716379    -0.04746558     1.40258363    -0.00003592     0.00005917     0.00037614
H         0.93397580    -0.14709576    -0.59176129    -0.00027833    -0.00043809    -0.00031231
H         0.85236018    -0.20658096     1.90731051     0.00027928    -0.00064682     0.00029945
H        -0.94762741    -0.15423243     1.89205205     0.00026900    -0.00042943    -0.00000257
H        -1.03717313    -0.02773140    -0.54494990     0.00047424    -0.00055078    -0.00039453
     6
  Step:    34            Position(A)                                  Velocity(au)
C        -0.03025165     0.04467654    -0.10808077    -0.00002253     0.00010681    -0.00040471
N        -0.04734663    -0.04713033     1.40466279    -0.00003013     0.00006294     0.00038058
H         0.93245481    -0.14954352    -0.59351278    -0.00027401    -0.00045331    -0.00032589
H         0.85377481    -0.21019667     1.90888820     0.00023259    -0.00066927     0.00027319
H        -0.94619643    -0.15665376     1.89205367     0.00024772    -0.00045287     0.00000552
H        -1.03453971    -0.03081403    -0.54718103     0.00048093    -0.00057194    -0.00041891
     6
  Step:    35            Position(A)                                  Velocity(au)
C        -0.03038020     0.04526990    -0.11030297    -0.00002406     0.00010925    -0.00040398
N        -0.04749476    -0.04677425     1.40676376    -0.00002336     0.00006676     0.00038409
H         0.93096614    -0.15207476    -0.59534073    -0.00026669    -0.00046844    -0.00034007
H         0.85491491    -0.21393205     1.91031112     0.00017996    -0.00069050     0.00024345
H        -0.94490649    -0.15920666     1.89211270     0.00021805    -0.00047731     0.00001811
H        -1.03189076    -0.03401339    -0.54955107     0.00047993    -0.00059331    -0.00044506
     6
  Step:    36            Position(A)                                  Velocity(au)
C        -0.03051590     0.04587650    -0.11251802    -0.00002513     0.00011162    -0.00040212
N        -0.04760317    -0.04639704     1.40888153    -0.00001576     0.00007064     0.00038669
H         0.92952551    -0.15468883    -0.59724807    -0.00025667    -0.00048341    -0.00035468
H         0.85575149    -0.21778096     1.91156223     0.00012277    -0.00071071     0.00021100
H        -0.94380140    -0.16189644     1.89225260     0.00018095    -0.00050265     0.00003467
H        -1.02926820    -0.03733083    -0.55206944     0.00047142    -0.00061494    -0.00047281
     6
  Step:    37            Position(A)                                  Velocity(au)
C        -0.03065621     0.04649598    -0.11471990    -0.00002573     0.00011393    -0.00039920
N        -0.04766788    -0.04599837     1.41101116    -0.00000755     0.00007457     0.00038839
H         0.92814685    -0.15738453    -0.59923662    -0.00024429    -0.00049809    -0.00036951
H         0.85626343    -0.22173858     1.91262871     0.00006248    -0.00073017     0.00017660
H        -0.94291895    -0.16472777     1.89249348     0.00013764    -0.00052874     0.00005451
H        -1.02671265    -0.04076792    -0.55474451     0.00045570    -0.00063686    -0.00050195
     6
  Step:    38            Position(A)                                  Velocity(au)
C        -0.03079857     0.04712796    -0.11690302    -0.00002588     0.00011616    -0.00039529
N        -0.04768606    -0.04557791     1.41314782     0.00000107     0.00007857     0.00038923
H         0.92684207    -0.16016008    -0.60130697    -0.00022995    -0.00051237    -0.00038433
H         0.85643780    -0.22580155     1.91350213     0.00000060    -0.00074916     0.00014108
H        -0.94228955    -0.16770444     1.89285139     0.00008957    -0.00055542     0.00007686
H        -1.02426251    -0.04432637    -0.55758318     0.00043328    -0.00065908    -0.00053218
     6
  Step:    39            Position(A)                                  Velocity(au)
C        -0.03094048     0.04777203    -0.11906221    -0.00002557     0.00011831    -0.00039049
N        -0.04765613    -0.04513528     1.41528688     0.00000985     0.00008264     0.00038924
H         0.92562088    -0.16301298    -0.60345846    -0.00021405    -0.00052613    -0.00039889
H         0.85627005    -0.22996817     1.91417847    -0.00006133    -0.00076799     0.00010523
H        -0.94193507    -0.17082908     1.89333778     0.00003836    -0.00058244     0.00010083
H        -1.02195305    -0.04800799    -0.56059051     0.00040479    -0.00068162    -0.00056311
     6
  Step:    40            Position(A)                                  Velocity(au)
C        -0.03107950     0.04842772    -0.12119281    -0.00002484     0.00012037    -0.00038487
N        -0.04757780    -0.04467009     1.41742390     0.00001857     0.00008677     0.00038846
H         0.92449060    -0.16594000    -0.60568906    -0.00019704    -0.00053921    -0.00041295
H         0.85576404    -0.23423849     1.91465811    -0.00012180    -0.00078698     0.00006983
H        -0.94186809    -0.17410295     1.89395908    -0.00001423    -0.00060952     0.00012549
H        -1.01981555    -0.05181454    -0.56376941     0.00037104    -0.00070446    -0.00059433
     6
  Step:    41            Position(A)                                  Velocity(au)
C        -0.03121337     0.04909451    -0.12329068    -0.00002371     0.00012233    -0.00037855
N        -0.04745213    -0.04418195     1.41955471     0.00002697     0.00009097     0.00038693
H         0.92345611    -0.16893706    -0.60799540    -0.00017936    -0.00055146    -0.00042627
H         0.85493186    -0.23861439     1.91494564    -0.00017935    -0.00080647     0.00003563
H        -0.94209136    -0.17752569     1.89471648    -0.00006640    -0.00063637     0.00014988
H        -1.01787659    -0.05574767    -0.56712021     0.00033294    -0.00072756    -0.00062534
     6
  Step:    42            Position(A)                                  Velocity(au)
C        -0.03134005     0.04977180    -0.12535221    -0.00002224     0.00012416    -0.00037161
N        -0.04728149    -0.04367051     1.42167537     0.00003482     0.00009524     0.00038470
H         0.92251985    -0.17199922    -0.61037278    -0.00016147    -0.00056272    -0.00043861
H         0.85379341    -0.24309963     1.91504964    -0.00023260    -0.00082679     0.00000334
H        -0.94259772    -0.18109516     1.89560595    -0.00011639    -0.00066264     0.00017308
H        -1.01615736    -0.05980876    -0.57064047     0.00029151    -0.00075087    -0.00065562
     6
  Step:    43            Position(A)                                  Velocity(au)
C        -0.03145772     0.05045890    -0.12737427    -0.00002046     0.00012586    -0.00036414
N        -0.04706947    -0.04313538     1.42378214     0.00004192     0.00009957     0.00038180
H         0.92168180    -0.17512063    -0.61281518    -0.00014378    -0.00057281    -0.00044973
H         0.85237587    -0.24769985     1.91498235    -0.00028029    -0.00084829    -0.00002643
H        -0.94337037    -0.18480728     1.89661840    -0.00016249    -0.00068796     0.00019419
H        -1.01467320    -0.06399880    -0.57432471     0.00024787    -0.00077429    -0.00068460
     6
  Step:    44            Position(A)                                  Velocity(au)
C        -0.03156487     0.05115500    -0.12935414    -0.00001843     0.00012739    -0.00035620
N        -0.04682084    -0.04257625     1.42587142     0.00004805     0.00010395     0.00037825
H         0.92093963    -0.17829448    -0.61531537    -0.00012673    -0.00058157    -0.00045942
H         0.85071296    -0.25242250     1.91475921    -0.00032132    -0.00087128    -0.00005313
H        -0.94438349    -0.18865598     1.89774010    -0.00020314    -0.00071199     0.00021241
H        -1.01343324    -0.06831829    -0.57816427     0.00020315    -0.00079772    -0.00071168
     6