|===============================================================================
|
|  DFTB+ release 20.1
|
|  Copyright (C) 2006 - 2020  DFTB+ developers group
|
|===============================================================================
|
|  When publishing results obtained with DFTB+, please cite the following
|  reference:
|
|  * DFTB+, a software package for efficient approximate density functional
|    theory based atomistic simulations, J. Chem. Phys. 152, 124101 (2020).
|    [doi: 10.1063/1.5143190]
|
|  You should also cite additional publications crediting the parametrization
|  data you use. Please consult the documentation of the SK-files for the
|  references.
|
|===============================================================================

Reading input file 'dftb_in.hsd'
Parser version: 8

--------------------------------------------------------------------------------
Reading SK-files:
Done.


Processed input in HSD format written to 'dftb_pin.hsd'

Starting initialization...
--------------------------------------------------------------------------------
WARNING!
-> Excited state forces are not implemented yet for fractional occupations, kT=  0.3158E-02K
OpenMP threads:              1
Chosen random seed:          507949141
Mode:                        Static calculation
Self consistent charges:     Yes
SCC-tolerance:                 0.100000E-05
Max. scc iterations:                    100
Shell resolved Hubbard:      No
Spin polarisation:           No
Nr. of up electrons:             6.000000
Nr. of down electrons:           6.000000
Periodic boundaries:         No
Electronic solver:           Relatively robust
Mixer:                       Broyden mixer
Mixing parameter:                  0.200000
Maximal SCC-cycles:                     100
Nr. of chrg. vec. in memory:              0
Electronic temperature:        0.100000E-07 H      0.272114E-06 eV
Initial charges:             Set automatically (system chrg:   0.100E+01)
Included shells:             C:  s, p
                             N:  s, p
                             H:  s
Extra options:
                             Mulliken analysis
                             Force calculation
Force type                   original
                             Eigenvector printing

--------------------------------------------------------------------------------

***  Geometry step: 0

 iSCC Total electronic   Diff electronic      SCC error    
    1   -0.52312430E+01    0.00000000E+00    0.10871209E+01
    2   -0.52569419E+01   -0.25698989E-01    0.66926862E+00
    3   -0.52665348E+01   -0.95928136E-02    0.28354434E+00
    4   -0.48528727E+01    0.41366211E+00    0.20650791E+01
    5   -0.52665701E+01   -0.41369748E+00    0.20019319E+00
    6   -0.52706228E+01   -0.40526232E-02    0.23856447E-01
    7   -0.52706596E+01   -0.36859195E-04    0.13758713E-01
    8   -0.52706823E+01   -0.22648640E-04    0.14549772E-02
    9   -0.52706824E+01   -0.18483836E-06    0.47254722E-03
   10   -0.52706824E+01    0.34353061E-07    0.74546910E-03
   11   -0.52706825E+01   -0.51182489E-07    0.10971800E-03
   12   -0.52706825E+01   -0.42987125E-09    0.83366639E-04
   13   -0.52706825E+01   -0.64943162E-09    0.10210397E-06
>> Charges saved for restart in charges.bin

Total Energy:                       -5.0328947300 H         -136.9520 eV
Extrapolated to 0:                  -5.1324505917 H         -139.6611 eV
Total Mermin free energy:           -5.0328947300 H         -136.9520 eV
Force related energy:               -5.1324505917 H         -139.6611 eV

--------------------------------------------------------------------------------
DFTB+ running times                          cpu [s]             wall clock [s]
--------------------------------------------------------------------------------
SCC                                    +     0.01  ( 56.4%)      0.06  ( 80.2%)
Post-SCC processing                    +     0.00  ( 37.6%)      0.01  ( 14.8%)
--------------------------------------------------------------------------------
Missing                                +     0.00  (  6.1%)      0.00  (  4.9%)
Total                                  =     0.01  (100.0%)      0.08  (100.0%)
--------------------------------------------------------------------------------
