     6
  Step:     0            Position(A)                                  Velocity(au)
C        -0.04026950     0.00006824     0.03647561    -0.00015161     0.00002979     0.00001435
N        -0.03298156    -0.03981895     1.28314455     0.00011160     0.00001956     0.00006907
H         0.88838053     0.07782582    -0.52846397     0.00086439    -0.00003336    -0.00026231
H         0.75347475    -0.14435813     1.84592279     0.00002263    -0.00018183    -0.00054445
H        -0.95400357    -0.17453465     1.82264293    -0.00094251    -0.00013410     0.00012668
H        -0.96261286     0.12381367    -0.51373372     0.00031124    -0.00027744    -0.00045071
     6
  Step:     1            Position(A)                                  Velocity(au)
C        -0.04109883     0.00022479     0.03632775    -0.00015115     0.00002752    -0.00006839
N        -0.03244734    -0.03970689     1.28372982     0.00008317     0.00002144     0.00014463
H         0.89336325     0.07768735    -0.53016663     0.00095010    -0.00001797    -0.00035504
H         0.75432303    -0.14547906     1.84349732     0.00029026    -0.00022910    -0.00033995
H        -0.95879889    -0.17527209     1.82316593    -0.00080416    -0.00013462     0.00006127
H        -0.96118992     0.12238816    -0.51649967     0.00020916    -0.00024412    -0.00056119
     6
  Step:     2            Position(A)                                  Velocity(au)
C        -0.04192248     0.00036923     0.03572769    -0.00014966     0.00002538    -0.00015070
N        -0.03207202    -0.03958450     1.28472627     0.00005394     0.00002334     0.00021934
H         0.89877088     0.07762927    -0.53234671     0.00102015    -0.00000398    -0.00043707
H         0.75664901    -0.14686359     1.84220504     0.00055901    -0.00027786    -0.00013353
H        -0.96279792    -0.17600690     1.82331297    -0.00065346    -0.00013349    -0.00000967
H        -0.96032549     0.12114393    -0.51987094     0.00010801    -0.00021143    -0.00067197
     6
  Step:     3            Position(A)                                  Velocity(au)
C        -0.04273490     0.00050222     0.03468036    -0.00014713     0.00002334    -0.00023171
N        -0.03185762    -0.03945168     1.28612757     0.00002471     0.00002525     0.00029263
H         0.90451546     0.07764385    -0.53494459     0.00107367     0.00000861    -0.00050808
H         0.76043403    -0.14851654     1.84203756     0.00082000    -0.00032684     0.00006827
H        -0.96594243    -0.17673143     1.82306023    -0.00049339    -0.00013118    -0.00008391
H        -0.96000918     0.12007682    -0.52384561     0.00000954    -0.00017953    -0.00078169
     6
  Step:     4            Position(A)                                  Velocity(au)
C        -0.04353054     0.00062428     0.03319531    -0.00014356     0.00002137    -0.00031047
N        -0.03180192    -0.03930850     1.28792449    -0.00000374     0.00002713     0.00036386
H         0.91050532     0.07772340    -0.53789973     0.00110991     0.00001981    -0.00056790
H         0.76561110    -0.15043576     1.84295115     0.00106430    -0.00037470     0.00025903
H        -0.96819038    -0.17744056     1.82239586    -0.00032700    -0.00012811    -0.00015922
H        -0.96022124     0.11918184    -0.52841428    -0.00008448    -0.00014856    -0.00088875
     6
  Step:     5            Position(A)                                  Velocity(au)
C        -0.04430392     0.00073579     0.03128722    -0.00013895     0.00001946    -0.00038592
N        -0.03189855    -0.03915521     1.29010431    -0.00003066     0.00002893     0.00043225
H         0.91664586     0.07786031    -0.54115123     0.00112827     0.00002961    -0.00061635
H         0.77206595    -0.15261172     1.84486857     0.00128328    -0.00042001     0.00043278
H        -0.96951627    -0.17813157     1.82132009    -0.00015751    -0.00012473    -0.00023327
H        -0.96093246     0.11845323    -0.53355889    -0.00017224    -0.00011867    -0.00099131
     6
  Step:     6            Position(A)                                  Velocity(au)
C        -0.04504953     0.00083703     0.02897636    -0.00013329     0.00001758    -0.00045690
N        -0.03213715    -0.03899228     1.29265003    -0.00005532     0.00003061     0.00049686
H         0.92283988     0.07804708    -0.54463781     0.00112831     0.00003802    -0.00065334
H         0.77964023    -0.15502740     1.84768246     0.00146911    -0.00046135     0.00058427
H        -0.96991236    -0.17880412     1.81984572     0.00001148    -0.00012147    -0.00030361
H        -0.96210425     0.11788453    -0.53925160    -0.00025196    -0.00009003    -0.00108737
     6
  Step:     7            Position(A)                                  Velocity(au)
C        -0.04576196     0.00092812     0.02628909    -0.00012661     0.00001571    -0.00052221
N        -0.03250366    -0.03882035     1.29553953    -0.00007703     0.00003215     0.00055660
H         0.92898861     0.07827626    -0.54829815     0.00110988     0.00004506    -0.00067885
H         0.78813675    -0.15765849     1.85125997     0.00161523    -0.00049740     0.00070925
H        -0.96939067    -0.17946031     1.81799886     0.00017598    -0.00011879    -0.00036769
H        -0.96368871     0.11746843    -0.54545376    -0.00032190    -0.00006281    -0.00117477
     6
  Step:     8            Position(A)                                  Velocity(au)
C        -0.04643595     0.00100909     0.02325816    -0.00011898     0.00001384    -0.00058061
N        -0.03298065    -0.03864024     1.29874485    -0.00009523     0.00003352     0.00061031
H         0.93499312     0.07854046    -0.55207128     0.00107319     0.00005072    -0.00069303
H         0.79732702    -0.16047397     1.85544873     0.00171672    -0.00052701     0.00080471
H        -0.96798533    -0.18010482     1.81581951     0.00033159    -0.00011717    -0.00042288
H        -0.96562905     0.11719678    -0.55211534    -0.00038046    -0.00003720    -0.00125135
     6
  Step:     9            Position(A)                                  Velocity(au)
C        -0.04706656     0.00107989     0.01992268    -0.00011046     0.00001196    -0.00063095
N        -0.03354782    -0.03845282     1.30223166    -0.00010942     0.00003471     0.00065681
H         0.94075628     0.07883239    -0.55589724     0.00101890     0.00005502    -0.00069615
H         0.80696074    -0.16343717     1.86008369     0.00177067    -0.00054926     0.00086904
H        -0.96575479    -0.18074505     1.81336195     0.00047360    -0.00011712    -0.00046659
H        -0.96786049     0.11706047    -0.55917490    -0.00042631    -0.00001342    -0.00131510
     6
  Step:    10            Position(A)                                  Velocity(au)
C        -0.04764927     0.00114043     0.01632775    -0.00010118     0.00001006    -0.00067227
N        -0.03418258    -0.03825898     1.30595929    -0.00011928     0.00003573     0.00069502
H         0.94618483     0.07914482    -0.55971783     0.00094816     0.00005799    -0.00068873
H         0.81677625    -0.16650708     1.86499432     0.00177633    -0.00056357     0.00090204
H        -0.96278324    -0.18139123     1.81069444     0.00059729    -0.00011915    -0.00049643
H        -0.97031165     0.11704942    -0.56656048    -0.00045847     0.00000837    -0.00136433
     6
  Step:    11            Position(A)                                  Velocity(au)
C        -0.04818021     0.00119061     0.01252338    -0.00009129     0.00000815    -0.00070386
N        -0.03486073    -0.03805954     1.30988139    -0.00012462     0.00003661     0.00072408
H         0.95119218     0.07947070    -0.56347778     0.00086266     0.00005969    -0.00067156
H         0.82651195    -0.16964008     1.87001199     0.00173516    -0.00056971     0.00090492
H        -0.95918067    -0.18205645     1.80789798     0.00069820    -0.00012376    -0.00051039
H        -0.97290670     0.11715264    -0.57419140    -0.00047646     0.00002800    -0.00139785
     6
  Step:    12            Position(A)                                  Velocity(au)
C        -0.04865631     0.00123036     0.00856302    -0.00008096     0.00000624    -0.00072541
N        -0.03555736    -0.03785515     1.31394712    -0.00012542     0.00003737     0.00074348
H         0.95570133     0.07980326    -0.56712623     0.00076464     0.00006018    -0.00064570
H         0.83591790    -0.17279192     1.87497708     0.00165071    -0.00056786     0.00088016
H        -0.95508093    -0.18275648     1.80506403     0.00077254    -0.00013140    -0.00050702
H        -0.97556782     0.11735835    -0.58198100    -0.00048032     0.00004537    -0.00141512
     6
  Step:    13            Position(A)                                  Velocity(au)
C        -0.04907547     0.00125967     0.00450163    -0.00007040     0.00000435    -0.00073699
N        -0.03624765    -0.03764625     1.31810302    -0.00012183     0.00003809     0.00075309
H         0.95964775     0.08013621    -0.57061817     0.00065675     0.00005959    -0.00061250
H         0.84476596    -0.17591970     1.87974505     0.00152825    -0.00055858     0.00083124
H        -0.95063774    -0.18350948     1.80229116     0.00081751    -0.00014245    -0.00048561
H        -0.97821820     0.11765431    -0.58984017    -0.00047065     0.00006042    -0.00141635
     6
  Step:    14            Position(A)                                  Velocity(au)
C        -0.04943667     0.00127858     0.00039337    -0.00005981     0.00000248    -0.00073916
N        -0.03690787    -0.03743296     1.32229528    -0.00011418     0.00003881     0.00075327
H         0.96298151     0.08046384    -0.57391593     0.00054191     0.00005805    -0.00057351
H         0.85285879    -0.17898392     1.88419151     0.00137440    -0.00054279     0.00076240
H        -0.94601869    -0.18433559     1.79968098     0.00083170    -0.00015721    -0.00044623
H        -0.98078505     0.11802810    -0.59768151    -0.00044859     0.00007320    -0.00140257
     6
  Step:    15            Position(A)                                  Velocity(au)
C        -0.04974003     0.00128722    -0.00371085    -0.00004941     0.00000065    -0.00073288
N        -0.03751626    -0.03721510     1.32647235    -0.00010292     0.00003960     0.00074484
H         0.96566869     0.08078123    -0.57699024     0.00042308     0.00005575    -0.00053042
H         0.86003640    -0.18195039     1.88821578     0.00119646    -0.00052165     0.00067824
H        -0.94139710    -0.18525622     1.79733325     0.00081523    -0.00017585    -0.00038983
H        -0.98320233     0.11846756    -0.60542355    -0.00041570     0.00008380    -0.00137552
     6
  Step:    16            Position(A)                                  Velocity(au)
C        -0.04998676     0.00128581    -0.00776558    -0.00003938    -0.00000113    -0.00071945
N        -0.03805371    -0.03699214     1.33058740    -0.00008863     0.00004053     0.00072898
H         0.96769157     0.08108452    -0.57982097     0.00030304     0.00005287    -0.00048494
H         0.86617868    -0.18479135     1.89174213     0.00100183    -0.00049655     0.00058336
H        -0.93694300    -0.18629329     1.79534115     0.00076975    -0.00019843    -0.00031803
H        -0.98541292     0.11896103    -0.61299482    -0.00037376     0.00009243    -0.00133751
     6
  Step:    17            Position(A)                                  Velocity(au)
C        -0.05017906     0.00127459    -0.01173261    -0.00002985    -0.00000287    -0.00070037
N        -0.03850448    -0.03676318     1.33460035    -0.00007192     0.00004168     0.00070712
H         0.96904753     0.08137071    -0.58239721     0.00018417     0.00004957    -0.00043867
H         0.87120660    -0.18748687     1.89472010     0.00079745    -0.00046893     0.00048207
H        -0.93281453    -0.18746870     1.79378726     0.00069822    -0.00022493    -0.00023301
H        -0.98736972     0.11949815    -0.62033653    -0.00032464     0.00009937    -0.00129112
     6
  Step:    18            Position(A)                                  Velocity(au)
C        -0.05031993     0.00125381    -0.01558199    -0.00002095    -0.00000456    -0.00067713
N        -0.03885641    -0.03652702     1.33847915    -0.00005343     0.00004309     0.00068074
H         0.96974696     0.08163780    -0.58471677     0.00006833     0.00004604    -0.00039303
H         0.87507862    -0.19002482     1.89712230     0.00058928    -0.00044014     0.00037810
H        -0.92915051    -0.18880363     1.79274064     0.00060458    -0.00025522    -0.00013722
H        -0.98903601     0.12007004    -0.62740435    -0.00027008     0.00010492    -0.00123898
     6
  Step:    19            Position(A)                                  Velocity(au)
C        -0.05041294     0.00122370    -0.01929200    -0.00001076    -0.00000236    -0.00070312
N        -0.03910096    -0.03628215     1.34220009    -0.00003510     0.00004403     0.00069155
H         0.96981034     0.08188474    -0.58678498    -0.00007999    -0.00001188    -0.00031232
H         0.87778527    -0.19240054     1.89894113     0.00037059    -0.00037183     0.00026748
H        -0.92606509    -0.19031799     1.79225530     0.00051872    -0.00033508    -0.00005186
H        -0.99038484     0.12066949    -0.63416838    -0.00019338     0.00013511    -0.00113486
     6
  Step:    20            Position(A)                                  Velocity(au)
C        -0.05044002     0.00122746    -0.02342979     0.00000094     0.00000382    -0.00077956
N        -0.03924816    -0.03603558     1.34619779    -0.00001741     0.00004403     0.00074096
H         0.96885418     0.08150521    -0.58820275    -0.00025965    -0.00010750    -0.00019626
H         0.87921493    -0.19417502     1.90010778     0.00014323    -0.00027995     0.00014839
H        -0.92336082    -0.19254361     1.79216182     0.00044448    -0.00044324     0.00002220
H        -0.99119446     0.12157806    -0.64007104    -0.00009725     0.00017338    -0.00098178
     6
  Step:    21            Position(A)                                  Velocity(au)
C        -0.05040250     0.00126630    -0.02798901     0.00001215     0.00001002    -0.00085220
N        -0.03929522    -0.03579094     1.35046655     0.00000059     0.00004375     0.00078710
H         0.96691356     0.08068543    -0.58897452    -0.00043064    -0.00017946    -0.00008370
H         0.87938319    -0.19552381     1.90059663    -0.00007782    -0.00021074     0.00002932
H        -0.92110629    -0.19526289     1.79250292     0.00035836    -0.00052500     0.00010306
H        -0.99146974     0.12260379    -0.64512144    -0.00000282     0.00018787    -0.00083169
     6
  Step:    22            Position(A)                                  Velocity(au)
C        -0.05030458     0.00133925    -0.03293276     0.00002254     0.00001602    -0.00091761
N        -0.03924158    -0.03554776     1.35497488     0.00001845     0.00004362     0.00082712
H         0.96405201     0.07950403    -0.58913607    -0.00058899    -0.00023999     0.00002143
H         0.87834709    -0.19652503     1.90043477    -0.00028656    -0.00015323    -0.00008305
H        -0.91936472    -0.19839792     1.79331102     0.00026236    -0.00059591     0.00018872
H        -0.99122587     0.12367300    -0.64934538     0.00008810     0.00019208    -0.00068678
     6
  Step:    23            Position(A)                                  Velocity(au)
C        -0.05015121     0.00144487    -0.03821743     0.00003201     0.00002173    -0.00097483
N        -0.03908951    -0.03530469     1.35968632     0.00003565     0.00004376     0.00086035
H         0.96034816     0.07801027    -0.58873567    -0.00073198    -0.00029287     0.00011710
H         0.87618902    -0.19723187     1.89967094    -0.00047851    -0.00010430    -0.00018529
H        -0.91818180    -0.20190544     1.79460651     0.00015992    -0.00066027     0.00027695
H        -0.99048770     0.12474487    -0.65277689     0.00017374     0.00019038    -0.00054840
     6
  Step:    24            Position(A)                                  Velocity(au)
C        -0.04994788     0.00158146    -0.04379629     0.00004044     0.00002712    -0.00102332
N        -0.03884428    -0.03506009     1.36456268     0.00005162     0.00004418     0.00088651
H         0.95589473     0.07624024    -0.58783114    -0.00085697    -0.00033986     0.00020163
H         0.87301450    -0.19768738     1.89836986    -0.00064949    -0.00006266    -0.00027468
H        -0.91758260    -0.20575603     1.79639736     0.00005493    -0.00071967     0.00036541
H        -0.98928969     0.12579465    -0.65545674     0.00025235     0.00018507    -0.00041774
     6
  Step:    25            Position(A)                                  Velocity(au)
C        -0.04970057     0.00174710    -0.04962067     0.00004774     0.00003215    -0.00106273
N        -0.03851432    -0.03481234     1.36956508     0.00006577     0.00004489     0.00090550
H         0.95079857     0.07422306    -0.58648878    -0.00096130    -0.00038192     0.00027350
H         0.86895152    -0.19793008     1.89661006    -0.00079533    -0.00002787    -0.00034879
H        -0.91756971    -0.20992505     1.79867842    -0.00004849    -0.00077457     0.00045171
H        -0.98767570     0.12680715    -0.65743189     0.00032218     0.00017758    -0.00029599
     6
  Step:    26            Position(A)                                  Velocity(au)
C        -0.04941577     0.00193972    -0.05564037     0.00005383     0.00003677    -0.00109284
N        -0.03811125    -0.03455983     1.37465443     0.00007755     0.00004586     0.00091732
H         0.94518104     0.07198374    -0.58478297    -0.00104235    -0.00041955     0.00033127
H         0.86415059    -0.19799800     1.89448261    -0.00091208     0.00000007    -0.00040547
H        -0.91812303    -0.21438861     1.80143165    -0.00014622    -0.00082481     0.00053350
H        -0.98569897     0.12777377    -0.65875559     0.00038158     0.00016894    -0.00018434
     6
  Step:    27            Position(A)                                  Velocity(au)
C        -0.04910048     0.00215699    -0.06180442     0.00005859     0.00004094    -0.00111358
N        -0.03764974    -0.03430105     1.37979200     0.00008643     0.00004708     0.00092211
H         0.93917771     0.06954556    -0.58279556    -0.00109765    -0.00045301     0.00037366
H         0.85878303    -0.19792935     1.89208960    -0.00099616     0.00002100    -0.00044290
H        -0.91919991    -0.21912068     1.80462630    -0.00023438    -0.00086994     0.00060862
H        -0.98342154     0.12869060    -0.65948705     0.00042902     0.00015990    -0.00008388
     6
  Step:    28            Position(A)                                  Velocity(au)
C        -0.04876225     0.00239637    -0.06806168     0.00006195     0.00004464    -0.00112508
N        -0.03714722    -0.03403467     1.38494002     0.00009196     0.00004852     0.00092017
H         0.93293748     0.06693070    -0.58061508    -0.00112511    -0.00048247     0.00039964
H         0.85303907    -0.19776373     1.88954238    -0.00104463     0.00003468    -0.00045970
H        -0.92073737    -0.22409220     1.80822038    -0.00030958    -0.00090942     0.00067521
H        -0.98091357     0.12955733    -0.65969123     0.00046316     0.00015106     0.00000438
     6
  Step:    29            Position(A)                                  Velocity(au)
C        -0.04840903     0.00265519    -0.07436193     0.00006385     0.00004784    -0.00112768
N        -0.03662330    -0.03375948     1.39006241     0.00009384     0.00005016     0.00091194
H         0.92661991     0.06416057    -0.57833498    -0.00112321    -0.00050809     0.00040856
H         0.84712347    -0.19754222     1.88695867    -0.00105554     0.00004092    -0.00045514
H        -0.92265527    -0.22927105     1.81216256    -0.00036917    -0.00094281     0.00073187
H        -0.97825204     0.13037666    -0.65943818     0.00048297     0.00014292     0.00007961
     6
  Step:    30            Position(A)                                  Velocity(au)
C        -0.04804906     0.00293067    -0.08065698     0.00006428     0.00005053    -0.00112194
N        -0.03609907    -0.03347442     1.39512564     0.00009189     0.00005198     0.00089802
H         0.92039215     0.06125576    -0.57605178    -0.00109116    -0.00053012     0.00040016
H         0.84124952    -0.19730673     1.88445887    -0.00102818     0.00003962    -0.00042917
H        -0.92486069    -0.23462258     1.81639476    -0.00041132    -0.00096985     0.00077770
H        -0.97551925     0.13115366    -0.65880206     0.00048772     0.00013590     0.00014124
     6
  Step:    31            Position(A)                                  Velocity(au)
C        -0.04769059     0.00322001    -0.08690181     0.00006325     0.00005274    -0.00110861
N        -0.03559621    -0.03317852     1.40009952     0.00008611     0.00005396     0.00087914
H         0.91442409     0.05823547    -0.57386237    -0.00102908    -0.00054888     0.00037472
H         0.83563150    -0.19709941     1.88216187    -0.00096329     0.00003090    -0.00038257
H        -0.92725257    -0.24011103     1.82085491    -0.00043510    -0.00099054     0.00081234
H        -0.97280079     0.13189562    -0.65785960     0.00047711     0.00013035     0.00018899
     6
  Step:    32            Position(A)                                  Velocity(au)
C        -0.04734161     0.00352048    -0.09305576     0.00006086     0.00005447    -0.00108862
N        -0.03513602    -0.03287097     1.40495797     0.00007666     0.00005608     0.00085614
H         0.90888280     0.05511700    -0.57186088    -0.00093808    -0.00056482     0.00033302
H         0.83047604    -0.19696115     1.88018023    -0.00086315     0.00001513    -0.00031694
H        -0.92972692    -0.24570085     1.82547996    -0.00044048    -0.00100511     0.00083590
H        -0.97018323     0.13261153    -0.65668836     0.00045123     0.00012654     0.00022296
     6
  Step:    33            Position(A)                                  Velocity(au)
C        -0.04700957     0.00382950    -0.09908333     0.00005723     0.00005577    -0.00106300
N        -0.03473844    -0.03255105     1.40967954     0.00006386     0.00005831     0.00082989
H         0.90392708     0.05191520    -0.57013591    -0.00082021    -0.00057844     0.00027636
H         0.82597301    -0.19693007     1.87861540    -0.00073155    -0.00000706    -0.00023465
H        -0.93218152    -0.25135808     1.83020848    -0.00042819    -0.00101402     0.00084894
H        -0.96775156     0.13331157    -0.65536475     0.00041062     0.00012464     0.00024356
     6
  Step:    34            Position(A)                                  Velocity(au)
C        -0.04670103     0.00414474    -0.10495476     0.00005254     0.00005669    -0.00103277
N        -0.03442119    -0.03221821     1.41424767     0.00004818     0.00006064     0.00080129
H         0.89970148     0.04864208    -0.56876734    -0.00067850    -0.00059030     0.00020651
H         0.82228720    -0.19704023     1.87755357    -0.00057361    -0.00003480    -0.00013876
H        -0.93451995    -0.25705162     1.83498288    -0.00039956    -0.00101788     0.00085233
H        -0.96558684     0.13400672    -0.65396194     0.00035614     0.00012476     0.00025154
     6
  Step:    35            Position(A)                                  Velocity(au)
C        -0.04642136     0.00446419    -0.11064610     0.00004703     0.00005729    -0.00099896
N        -0.03419906    -0.03187209     1.41865062     0.00003018     0.00006303     0.00077113
H         0.89633071     0.04530627    -0.56782383    -0.00051681    -0.00060102     0.00012563
H         0.81955090    -0.19731973     1.87706189    -0.00039560    -0.00006694    -0.00003284
H        -0.93665492    -0.26275412     1.83975105    -0.00035641    -0.00101742     0.00084713
H        -0.96376431     0.13470832    -0.65254859     0.00028898     0.00012692     0.00024783
     6
  Step:    36            Position(A)                                  Velocity(au)
C        -0.04617450     0.00478613    -0.11613905     0.00004096     0.00005762    -0.00096249
N        -0.03408326    -0.03151257     1.42288121     0.00001053     0.00006541     0.00074017
H         0.89391534     0.04191312    -0.56736080    -0.00033970    -0.00061115     0.00003617
H         0.81785805    -0.19778967     1.87718585    -0.00020459    -0.00010216     0.00007914
H        -0.93851034    -0.26844253     1.84446733    -0.00030084    -0.00101339     0.00083452
H        -0.96235149     0.13542768    -0.65118727     0.00021063     0.00013107     0.00023363
     6
  Step:    37            Position(A)                                  Velocity(au)
C        -0.04596279     0.00510921    -0.12142049     0.00003464     0.00005775    -0.00092418
N        -0.03408115    -0.03113981     1.42693626    -0.00001008     0.00006775     0.00070901
H         0.89252801     0.03846485    -0.56741887    -0.00015232    -0.00062120    -0.00005916
H         0.81726063    -0.19846330     1.87794785    -0.00000812    -0.00013902     0.00019310
H        -0.94002262    -0.27409825     1.84909286    -0.00023508    -0.00100654     0.00081565
H        -0.96140650     0.13617557    -0.64993326     0.00012286     0.00013709     0.00021030
     6
  Step:    38            Position(A)                                  Velocity(au)
C        -0.04578684     0.00543242    -0.12648181     0.00002836     0.00005773    -0.00088472
N        -0.03419609    -0.03075430     1.43081597    -0.00003095     0.00006999     0.00067816
H         0.89221063     0.03496105    -0.56802289     0.00003977    -0.00063157    -0.00015756
H         0.81776721    -0.19934544     1.87934694     0.00018621    -0.00017601     0.00030497
H        -0.94114118    -0.27970704     1.85359553    -0.00016142    -0.00099758     0.00079167
H        -0.96097653     0.13696188    -0.64883372     0.00002770     0.00014477     0.00017932
     6
  Step:    39            Position(A)                                  Velocity(au)
C        -0.04564556     0.00575502    -0.13131831     0.00002241     0.00005760    -0.00084471
N        -0.03442746    -0.03035685     1.43452321    -0.00005140     0.00007204     0.00064801
H         0.89297296     0.03139918    -0.56918156     0.00023087    -0.00064255    -0.00025618
H         0.81934389    -0.20043239     1.88135967     0.00037108    -0.00021165     0.00041089
H        -0.94182849    -0.28525869     1.85794961    -0.00008214    -0.00098716     0.00076362
H        -0.96109659     0.13779521    -0.64792707    -0.00007260     0.00015386     0.00014227
     6
  Step:    40            Position(A)                                  Velocity(au)
C        -0.04553622     0.00607655    -0.13592847     0.00001708     0.00005741    -0.00080464
N        -0.03477090    -0.02994861     1.43806290    -0.00007078     0.00007387     0.00061884
H         0.89479253     0.02777527    -0.57088783     0.00041532    -0.00065430    -0.00035228
H         0.82191713    -0.20171232     1.88394203     0.00053982    -0.00024452     0.00050742
H        -0.94205974    -0.29074669     1.86213532     0.00000055    -0.00097585     0.00073249
H        -0.96178846     0.13868257    -0.64724263    -0.00017562     0.00016405     0.00010077
     6
  Step:    41            Position(A)                                  Velocity(au)
C        -0.04545467     0.00639678    -0.14031341     0.00001259     0.00005719    -0.00076489
N        -0.03521869    -0.02953101     1.44144134    -0.00008853     0.00007542     0.00059084
H         0.89761585     0.02408466    -0.57311979     0.00058778    -0.00066689    -0.00044333
H         0.82537862    -0.20316593     1.88703218     0.00068673    -0.00027340     0.00059166
H        -0.94182229    -0.29616783     1.86613821     0.00008453    -0.00096421     0.00069917
H        -0.96305991     0.13962909    -0.64680051    -0.00027882     0.00017497     0.00005646
     6
  Step:    42            Position(A)                                  Velocity(au)
C        -0.04539553     0.00671562    -0.14447635     0.00000913     0.00005696    -0.00072583
N        -0.03576024    -0.02910574     1.44466571    -0.00010419     0.00007666     0.00056413
H         0.90136109     0.02032262    -0.57584211     0.00074348    -0.00068025    -0.00052707
H         0.82959152    -0.20476759     1.89055395     0.00080731    -0.00029724     0.00066135
H        -0.94111505    -0.30152194     1.86994877     0.00016780    -0.00095273     0.00066450
H        -0.96490431     0.14063792    -0.64661169    -0.00037959     0.00018627     0.00001094
     6
  Step:    43            Position(A)                                  Velocity(au)
C        -0.04535262     0.00703313    -0.14842229     0.00000683     0.00005675    -0.00068773
N        -0.03638267    -0.02867463     1.44774369    -0.00011739     0.00007755     0.00053875
H         0.90592190     0.01648494    -0.57900811     0.00087843    -0.00069426    -0.00060166
H         0.83439782    -0.20648666     1.89442076     0.00089844    -0.00031529     0.00071500
H        -0.93994766    -0.30681161     1.87356196     0.00024849    -0.00094190     0.00062925
H        -0.96730066     0.14171008    -0.64667830    -0.00047540     0.00019756    -0.00003425
     6
  Step:    44            Position(A)                                  Velocity(au)
C        -0.04531923     0.00734946    -0.15215761     0.00000574     0.00005657    -0.00065082
N        -0.03707143    -0.02823957     1.45068304    -0.00012791     0.00007811     0.00051472
H         0.91117233     0.01256834    -0.58256208     0.00098960    -0.00070873    -0.00066571
H         0.83962622    -0.20828906     1.89853978     0.00095840    -0.00032706     0.00075181
H        -0.93833963    -0.31204205     1.87697688     0.00032493    -0.00093218     0.00059413
H        -0.97021409     0.14284451    -0.64699418    -0.00056385     0.00020848    -0.00007768
     6