 Fermi distribution function

Calculation with static geometry


********************************************************************************
 iSCC Total electronic   Diff electronic      SCC error    
   13   -0.53078512E+01   -0.10452084E-10    0.26529771E-06
********************************************************************************

 Total charge:     1.00000000

 Atomic gross charges (e)
 Atom           Charge
    1       0.32508563
    2      -0.21430754
    3       0.16582656
    4       0.26158504
    5       0.28626734
    6       0.17554297

Nr. of electrons (up):     12.00000000
Atom populations (up)
 Atom       Population
    1       3.67491437
    2       5.21430754
    3       0.83417344
    4       0.73841496
    5       0.71373266
    6       0.82445703

l-shell populations (up)
 Atom Sh.   l       Population
    1   1   0       1.36938137
    1   2   1       2.30553301
    2   1   0       1.48664932
    2   2   1       3.72765822
    3   1   0       0.83417344
    4   1   0       0.73841496
    5   1   0       0.71373266
    6   1   0       0.82445703

Orbital populations (up)
 Atom Sh.   l   m       Population  Label
    1   1   0   0       1.36938137  s
    1   2   1  -1       0.45850542  p_y
    1   2   1   0       0.87424429  p_z
    1   2   1   1       0.97278330  p_x
    2   1   0   0       1.48664932  s
    2   2   1  -1       1.34123897  p_y
    2   2   1   0       1.07230458  p_z
    2   2   1   1       1.31411468  p_x
    3   1   0   0       0.83417344  s
    4   1   0   0       0.73841496  s
    5   1   0   0       0.71373266  s
    6   1   0   0       0.82445703  s

Fermi level:                        -0.5053576990 H          -13.7515 eV
Band energy:                        -8.7168112299 H         -237.1965 eV
TS:                                  0.0000000000 H            0.0000 eV
Band free energy (E-TS):            -8.7168112299 H         -237.1965 eV
Extrapolated E(0K):                 -8.7168112299 H         -237.1965 eV
Input / Output electrons (q):     12.0000000000     12.0000000000

Energy H0:                          -5.4432821573 H         -148.1192 eV
Energy SCC:                          0.1354309308 H            3.6853 eV
Total Electronic energy:            -5.3078512266 H         -144.4340 eV
Repulsive energy:                    0.1478680405 H            4.0237 eV
Total energy:                       -5.1599831861 H         -140.4103 eV
Extrapolated to 0:                  -5.1599831861 H         -140.4103 eV
Total Mermin free energy:           -5.1599831861 H         -140.4103 eV
Force related energy:               -5.1599831861 H         -140.4103 eV

SCC converged

Excitation Energy:                   0.0937191907 H            2.5502 eV

Total Forces
    1      0.002997828135     -0.000671158276      0.073184558936
    2     -0.007728131919      0.015848809188     -0.074407416155
    3     -0.006312520718      0.011090289991      0.001868798951
    4     -0.006618402441     -0.015009770323     -0.001665166375
    5      0.013704765381      0.004510105621     -0.001921669911
    6      0.003956461563     -0.015768276201      0.002940894553

Maximal derivative component:        0.744074E-01 au


