 Fermi distribution function

Calculation with static geometry


********************************************************************************
 iSCC Total electronic   Diff electronic      SCC error    
   13   -0.53368518E+01   -0.46611603E-11    0.30335481E-06
********************************************************************************

 Total charge:     1.00000000

 Atomic gross charges (e)
 Atom           Charge
    1       0.30822577
    2      -0.21459937
    3       0.16934824
    4       0.27842115
    5       0.29263970
    6       0.16596451

Nr. of electrons (up):     12.00000000
Atom populations (up)
 Atom       Population
    1       3.69177423
    2       5.21459937
    3       0.83065176
    4       0.72157885
    5       0.70736030
    6       0.83403549

l-shell populations (up)
 Atom Sh.   l       Population
    1   1   0       1.35094139
    1   2   1       2.34083285
    2   1   0       1.44807995
    2   2   1       3.76651942
    3   1   0       0.83065176
    4   1   0       0.72157885
    5   1   0       0.70736030
    6   1   0       0.83403549

Orbital populations (up)
 Atom Sh.   l   m       Population  Label
    1   1   0   0       1.35094139  s
    1   2   1  -1       0.51135344  p_y
    1   2   1   0       0.86733311  p_z
    1   2   1   1       0.96214630  p_x
    2   1   0   0       1.44807995  s
    2   2   1  -1       1.36906302  p_y
    2   2   1   0       1.05358045  p_z
    2   2   1   1       1.34387595  p_x
    3   1   0   0       0.83065176  s
    4   1   0   0       0.72157885  s
    5   1   0   0       0.70736030  s
    6   1   0   0       0.83403549  s

Fermi level:                        -0.4932322433 H          -13.4215 eV
Band energy:                        -8.7280485584 H         -237.5023 eV
TS:                                  0.0000000000 H            0.0000 eV
Band free energy (E-TS):            -8.7280485584 H         -237.5023 eV
Extrapolated E(0K):                 -8.7280485584 H         -237.5023 eV
Input / Output electrons (q):     12.0000000000     12.0000000000

Energy H0:                          -5.4685720601 H         -148.8074 eV
Energy SCC:                          0.1317202580 H            3.5843 eV
Total Electronic energy:            -5.3368518021 H         -145.2231 eV
Repulsive energy:                    0.1590898710 H            4.3291 eV
Total energy:                       -5.1777619311 H         -140.8941 eV
Extrapolated to 0:                  -5.1777619311 H         -140.8941 eV
Total Mermin free energy:           -5.1777619311 H         -140.8941 eV
Force related energy:               -5.1777619311 H         -140.8941 eV

SCC converged

Excitation Energy:                   0.0956841769 H            2.6037 eV

Total Forces
    1      0.007000593865      0.002507439913      0.091912140787
    2      0.000901850305     -0.003099831974     -0.090909868306
    3     -0.008686906698      0.011866400716      0.001705649585
    4     -0.014871924448     -0.008732621019     -0.003750973538
    5      0.012934987260      0.013744846635      0.000695508961
    6      0.002721399716     -0.016286234271      0.000347542512

Maximal derivative component:        0.919121E-01 au


