    14
  Step:   600            Position(A)                                  Velocity(au)
C        -5.32977246    -0.99418047     0.63440106     0.00057409    -0.00001838    -0.00001606
C        -5.19005424     0.05776248    -0.15803651     0.00025369     0.00005530    -0.00039362
H        -4.60513276    -1.82038819     0.44816555     0.00104619    -0.00049763     0.00050590
H        -6.04874962    -1.13930658     1.44241502     0.00115058     0.00135248     0.00066715
H        -5.50003699     1.14010167    -0.05072179     0.00218089     0.00167860     0.00190708
C        -3.85883049     0.17934076    -0.86298328    -0.00052899     0.00057051     0.00034754
C        -2.73009231     0.88463430    -0.55604302     0.00035513    -0.00071199    -0.00049940
H        -3.92168654    -0.38795008    -1.81727554    -0.00175075     0.00030951    -0.00037565
H        -2.08984760     1.31915969    -1.32985145     0.00027934    -0.00069045     0.00164855
C        -1.93897865     1.40339963     0.52399903    -0.00010144    -0.00018046     0.00011208
H        -2.24564776     1.62013268     1.67604724    -0.00050411     0.00057190    -0.00165095
N        -0.61089732     1.49844716     0.58247502    -0.00054218     0.00014743     0.00017784
H        -0.24283613     1.78526368     1.47739451     0.00062135    -0.00051718    -0.00068393
H         0.14462936     1.05857264     0.06239536    -0.00207251    -0.00085960     0.00086652
