|===============================================================================
|
|  DFTB+ release 20.1
|
|  Copyright (C) 2006 - 2020  DFTB+ developers group
|
|===============================================================================
|
|  When publishing results obtained with DFTB+, please cite the following
|  reference:
|
|  * DFTB+, a software package for efficient approximate density functional
|    theory based atomistic simulations, J. Chem. Phys. 152, 124101 (2020).
|    [doi: 10.1063/1.5143190]
|
|  You should also cite additional publications crediting the parametrization
|  data you use. Please consult the documentation of the SK-files for the
|  references.
|
|===============================================================================

Reading input file 'dftb_in.hsd'
Parser version: 8

--------------------------------------------------------------------------------
Reading SK-files:
Done.


Processed input in HSD format written to 'dftb_pin.hsd'

Starting initialization...
--------------------------------------------------------------------------------
OpenMP threads:              1
Chosen random seed:          451689453
Mode:                        Static calculation
Self consistent charges:     Yes
SCC-tolerance:                 0.100000E-05
Max. scc iterations:                   1000
Shell resolved Hubbard:      No
Spin polarisation:           No
Nr. of up electrons:             6.000000
Nr. of down electrons:           6.000000
Periodic boundaries:         No
Electronic solver:           Relatively robust
Maximal SCC-cycles:                    1000
Initial charges:             Set automatically (system chrg:   0.100E+01)
Included shells:             C:  s, p
                             N:  s, p
                             H:  s
Spin coupling constants:     C   1(s)-1(s):  -0.455900E-01
                             C   1(s)-2(p):  -0.293000E-01
                             C   2(p)-1(s):  -0.293000E-01
                             C   2(p)-2(p):  -0.275500E-01
                             N   1(s)-1(s):  -0.468700E-01
                             N   1(s)-2(p):  -0.317000E-01
                             N   2(p)-1(s):  -0.317000E-01
                             N   2(p)-2(p):  -0.307200E-01
                             H   1(s)-1(s):  -0.792500E-01
Range separated hybrid:      Yes
  Screening parameter omega:   0.300000E+00
  Range separated algorithm:   MatrixBased
Extra options:
                             Mulliken analysis
                             Force calculation
Force type                   original
                             Eigenvector printing


REKS Calcuation:             Yes
SSR(2,2) Calcuation:         Yes
Energy Functional:           (PPS+OSS)/2
Number of Core Orbitals:                  5
Number of Active Orbitals:                2
Number of Basis:                         12
Number of States:                         2
State-Averaging Weight:          0.500000
                                 0.500000
State of Interest:                        2
Initial Guess:               Diagonalize H0 matrix
Newton-Raphson for FON opt:  Yes
NR max. Iterations:                      50
Level Shifting:              Yes
Shift Value:                     0.300000
W Scale Factor:              C  =    3.200000
                             N  =    3.200000
                             H  =    3.200000
Transition Dipole:           No
Gradient of Microstate:      No
CP-REKS Solver:              Preconditioned Conjugate-Gradient
CG max. Iterations:                     100
CG Tolerance:                  0.100000E-07
Memory for A and Hxc:        Direct Updating Without Saving
Non-Adiabatic Coupling:      Yes

--------------------------------------------------------------------------------

***  Geometry step: 0

  iSCC       reks energy        Diff energy         x_a       SCC error   
    1       -6.2298450609       0.0000000000     0.996214    1.16968773
    2       -6.2490191424      -0.0191740815     0.999399    0.11142843
    3       -6.2571263258      -0.0081071834     0.999908    0.08000987
    4       -6.2602898196      -0.0031634938     0.999982    0.04968490
    5       -6.2611075829      -0.0008177633     0.999994    0.02508289
    6       -6.2612530845      -0.0001455016     0.999996    0.01083043
    7       -6.2612750182      -0.0000219337     0.999997    0.00395691
    8       -6.2612785860      -0.0000035677     0.999997    0.00137033
    9       -6.2612794174      -0.0000008315     0.999997    0.00047218
   10       -6.2612797571      -0.0000003397     0.999997    0.00018529
   11       -6.2612799657      -0.0000002086     0.999997    0.00015436
   12       -6.2612801199      -0.0000001543     0.999997    0.00013485
   13       -6.2612802448      -0.0000001248     0.999997    0.00012189
   14       -6.2612803517      -0.0000001070     0.999997    0.00011296
   15       -6.2612804473      -0.0000000955     0.999997    0.00010662
   16       -6.2612805353      -0.0000000880     0.999997    0.00010200
   17       -6.2612806182      -0.0000000829     0.999997    0.00009854
   18       -6.2612806974      -0.0000000793     0.999997    0.00009590
   19       -6.2612807741      -0.0000000766     0.999997    0.00009383
   20       -6.2612808487      -0.0000000746     0.999997    0.00009216
   21       -6.2612809218      -0.0000000731     0.999997    0.00009078
   22       -6.2612809935      -0.0000000717     0.999997    0.00008962
   23       -6.2612810641      -0.0000000706     0.999997    0.00008862
   24       -6.2612811337      -0.0000000696     0.999997    0.00008774
   25       -6.2612812023      -0.0000000686     0.999997    0.00008694
   26       -6.2612812700      -0.0000000677     0.999997    0.00008622
   27       -6.2612813369      -0.0000000669     0.999997    0.00008554
   28       -6.2612814030      -0.0000000660     0.999997    0.00008491
   29       -6.2612814682      -0.0000000652     0.999997    0.00008431
   30       -6.2612815327      -0.0000000645     0.999997    0.00008373
   31       -6.2612815964      -0.0000000637     0.999997    0.00008317
   32       -6.2612816593      -0.0000000629     0.999997    0.00008263
   33       -6.2612817215      -0.0000000622     0.999997    0.00008210
   34       -6.2612817830      -0.0000000615     0.999997    0.00008158
   35       -6.2612818437      -0.0000000607     0.999997    0.00008108
   36       -6.2612819037      -0.0000000600     0.999997    0.00008058
   37       -6.2612819631      -0.0000000593     0.999997    0.00008008
   38       -6.2612820217      -0.0000000586     0.999997    0.00007959
   39       -6.2612820797      -0.0000000580     0.999997    0.00007911
   40       -6.2612821370      -0.0000000573     0.999997    0.00007863
   41       -6.2612821936      -0.0000000566     0.999997    0.00007816
   42       -6.2612822495      -0.0000000560     0.999997    0.00007769
   43       -6.2612823049      -0.0000000553     0.999997    0.00007723
   44       -6.2612823595      -0.0000000547     0.999997    0.00007677
   45       -6.2612824136      -0.0000000540     0.999997    0.00007631
   46       -6.2612824670      -0.0000000534     0.999997    0.00007586
   47       -6.2612825198      -0.0000000528     0.999997    0.00007541
   48       -6.2612825720      -0.0000000522     0.999997    0.00007497
   49       -6.2612826236      -0.0000000516     0.999997    0.00007452
   50       -6.2612826747      -0.0000000510     0.999997    0.00007409
   51       -6.2612827251      -0.0000000504     0.999997    0.00007365
   52       -6.2612827750      -0.0000000499     0.999997    0.00007322
   53       -6.2612828243      -0.0000000493     0.999997    0.00007279
   54       -6.2612828730      -0.0000000487     0.999997    0.00007237
   55       -6.2612829212      -0.0000000482     0.999997    0.00007194
   56       -6.2612829689      -0.0000000477     0.999997    0.00007153
   57       -6.2612830160      -0.0000000471     0.999997    0.00007111
   58       -6.2612830626      -0.0000000466     0.999997    0.00007070
   59       -6.2612831086      -0.0000000461     0.999997    0.00007029
   60       -6.2612831542      -0.0000000455     0.999997    0.00006988
   61       -6.2612831992      -0.0000000450     0.999997    0.00006948
   62       -6.2612832438      -0.0000000445     0.999997    0.00006908
   63       -6.2612832878      -0.0000000440     0.999997    0.00006868
   64       -6.2612833314      -0.0000000435     0.999997    0.00006829
   65       -6.2612833744      -0.0000000431     0.999997    0.00006790
   66       -6.2612834170      -0.0000000426     0.999997    0.00006751
   67       -6.2612834591      -0.0000000421     0.999997    0.00006713
   68       -6.2612835008      -0.0000000417     0.999997    0.00006675
   69       -6.2612835420      -0.0000000412     0.999997    0.00006637
   70       -6.2612835827      -0.0000000407     0.999997    0.00006599
   71       -6.2612836230      -0.0000000403     0.999997    0.00006562
   72       -6.2612836629      -0.0000000399     0.999997    0.00006525
   73       -6.2612837023      -0.0000000394     0.999997    0.00006488
   74       -6.2612837413      -0.0000000390     0.999997    0.00006452
   75       -6.2612837798      -0.0000000386     0.999997    0.00006415
   76       -6.2612838180      -0.0000000381     0.999997    0.00006379
   77       -6.2612838557      -0.0000000377     0.999997    0.00006344
   78       -6.2612838930      -0.0000000373     0.999997    0.00006308
   79       -6.2612839300      -0.0000000369     0.999997    0.00006273
   80       -6.2612839665      -0.0000000365     0.999997    0.00006238
   81       -6.2612840026      -0.0000000361     0.999997    0.00006204
   82       -6.2612840384      -0.0000000357     0.999997    0.00006169
   83       -6.2612840737      -0.0000000354     0.999997    0.00006135
   84       -6.2612841087      -0.0000000350     0.999997    0.00006102
   85       -6.2612841433      -0.0000000346     0.999997    0.00006068
   86       -6.2612841776      -0.0000000342     0.999997    0.00006035
   87       -6.2612842114      -0.0000000339     0.999997    0.00006002
   88       -6.2612842450      -0.0000000335     0.999997    0.00005969
   89       -6.2612842781      -0.0000000332     0.999997    0.00005936
   90       -6.2612843109      -0.0000000328     0.999997    0.00005904
   91       -6.2612843434      -0.0000000325     0.999997    0.00005872
   92       -6.2612843755      -0.0000000321     0.999997    0.00005840
   93       -6.2612844073      -0.0000000318     0.999997    0.00005808
   94       -6.2612844388      -0.0000000315     0.999997    0.00005777
   95       -6.2612844699      -0.0000000311     0.999997    0.00005746
   96       -6.2612845007      -0.0000000308     0.999997    0.00005715
   97       -6.2612845312      -0.0000000305     0.999997    0.00005684
   98       -6.2612845614      -0.0000000302     0.999997    0.00005654
   99       -6.2612845912      -0.0000000299     0.999997    0.00005624
  100       -6.2612846208      -0.0000000295     0.999997    0.00005594
  101       -6.2612846500      -0.0000000292     0.999997    0.00005564
  102       -6.2612846789      -0.0000000289     0.999997    0.00005534
  103       -6.2612847076      -0.0000000286     0.999997    0.00005505
  104       -6.2612847359      -0.0000000283     0.999997    0.00005476
  105       -6.2612847640      -0.0000000281     0.999997    0.00005447
  106       -6.2612847917      -0.0000000278     0.999997    0.00005418
  107       -6.2612848192      -0.0000000275     0.999997    0.00005390
  108       -6.2612848464      -0.0000000272     0.999997    0.00005361
  109       -6.2612848734      -0.0000000269     0.999997    0.00005333
  110       -6.2612849000      -0.0000000267     0.999997    0.00005305
  111       -6.2612849264      -0.0000000264     0.999997    0.00005278
  112       -6.2612849525      -0.0000000261     0.999997    0.00005250
  113       -6.2612849784      -0.0000000259     0.999997    0.00005223
  114       -6.2612850040      -0.0000000256     0.999997    0.00005196
  115       -6.2612850294      -0.0000000253     0.999997    0.00005169
  116       -6.2612850544      -0.0000000251     0.999997    0.00005142
  117       -6.2612850793      -0.0000000248     0.999997    0.00005116
  118       -6.2612851039      -0.0000000246     0.999997    0.00005090
  119       -6.2612851282      -0.0000000243     0.999997    0.00005064
  120       -6.2612851523      -0.0000000241     0.999997    0.00005038
  121       -6.2612851762      -0.0000000239     0.999997    0.00005012
  122       -6.2612851998      -0.0000000236     0.999997    0.00004986
  123       -6.2612852232      -0.0000000234     0.999997    0.00004961
  124       -6.2612852464      -0.0000000232     0.999997    0.00004936
  125       -6.2612852693      -0.0000000229     0.999997    0.00004911
  126       -6.2612852921      -0.0000000227     0.999997    0.00004886
  127       -6.2612853146      -0.0000000225     0.999997    0.00004861
  128       -6.2612853368      -0.0000000223     0.999997    0.00004837
  129       -6.2612853589      -0.0000000221     0.999997    0.00004813
  130       -6.2612853807      -0.0000000218     0.999997    0.00004789
  131       -6.2612854024      -0.0000000216     0.999997    0.00004765
  132       -6.2612854238      -0.0000000214     0.999997    0.00004741
  133       -6.2612854450      -0.0000000212     0.999997    0.00004717
  134       -6.2612854660      -0.0000000210     0.999997    0.00004694
  135       -6.2612854868      -0.0000000208     0.999997    0.00004671
  136       -6.2612855074      -0.0000000206     0.999997    0.00004648
  137       -6.2612855279      -0.0000000204     0.999997    0.00004625
  138       -6.2612855481      -0.0000000202     0.999997    0.00004602
  139       -6.2612855681      -0.0000000200     0.999997    0.00004579
  140       -6.2612855880      -0.0000000198     0.999997    0.00004557
  141       -6.2612856076      -0.0000000197     0.999997    0.00004535
  142       -6.2612856271      -0.0000000195     0.999997    0.00004512
  143       -6.2612856463      -0.0000000193     0.999997    0.00004491
  144       -6.2612856654      -0.0000000191     0.999997    0.00004469
  145       -6.2612856844      -0.0000000189     0.999997    0.00004447
  146       -6.2612857031      -0.0000000187     0.999997    0.00004426
  147       -6.2612857217      -0.0000000186     0.999997    0.00004404
  148       -6.2612857401      -0.0000000184     0.999997    0.00004383
  149       -6.2612857583      -0.0000000182     0.999997    0.00004362
  150       -6.2612857763      -0.0000000181     0.999997    0.00004341
  151       -6.2612857942      -0.0000000179     0.999997    0.00004320
  152       -6.2612858120      -0.0000000177     0.999997    0.00004300
  153       -6.2612858295      -0.0000000176     0.999997    0.00004279
  154       -6.2612858469      -0.0000000174     0.999997    0.00004259
  155       -6.2612858641      -0.0000000172     0.999997    0.00004239
  156       -6.2612858812      -0.0000000171     0.999997    0.00004219
  157       -6.2612858981      -0.0000000169     0.999997    0.00004199
  158       -6.2612859149      -0.0000000168     0.999997    0.00004179
  159       -6.2612859315      -0.0000000166     0.999997    0.00004159
  160       -6.2612859480      -0.0000000165     0.999997    0.00004140
  161       -6.2612859643      -0.0000000163     0.999997    0.00004120
  162       -6.2612859805      -0.0000000162     0.999997    0.00004101
  163       -6.2612859965      -0.0000000160     0.999997    0.00004082
  164       -6.2612860123      -0.0000000159     0.999997    0.00004063
  165       -6.2612860281      -0.0000000157     0.999997    0.00004044
  166       -6.2612860437      -0.0000000156     0.999997    0.00004025
  167       -6.2612860591      -0.0000000155     0.999997    0.00004007
  168       -6.2612860744      -0.0000000153     0.999997    0.00003988
  169       -6.2612860896      -0.0000000152     0.999997    0.00003970
  170       -6.2612861047      -0.0000000150     0.999997    0.00003952
  171       -6.2612861196      -0.0000000149     0.999997    0.00003934
  172       -6.2612861343      -0.0000000148     0.999997    0.00003916
  173       -6.2612861490      -0.0000000146     0.999997    0.00003898
  174       -6.2612861635      -0.0000000145     0.999997    0.00003880
  175       -6.2612861779      -0.0000000144     0.999997    0.00003863
  176       -6.2612861922      -0.0000000143     0.999997    0.00003845
  177       -6.2612862063      -0.0000000141     0.999997    0.00003828
  178       -6.2612862203      -0.0000000140     0.999997    0.00003811
  179       -6.2612862342      -0.0000000139     0.999997    0.00003793
  180       -6.2612862480      -0.0000000138     0.999997    0.00003776
  181       -6.2612862616      -0.0000000137     0.999997    0.00003759
  182       -6.2612862752      -0.0000000135     0.999997    0.00003743
  183       -6.2612862886      -0.0000000134     0.999997    0.00003726
  184       -6.2612863019      -0.0000000133     0.999997    0.00003709
  185       -6.2612863151      -0.0000000132     0.999997    0.00003693
  186       -6.2612863281      -0.0000000131     0.999997    0.00003677
  187       -6.2612863411      -0.0000000130     0.999997    0.00003660
  188       -6.2612863539      -0.0000000129     0.999997    0.00003644
  189       -6.2612863667      -0.0000000127     0.999997    0.00003628
  190       -6.2612863793      -0.0000000126     0.999997    0.00003612
  191       -6.2612863918      -0.0000000125     0.999997    0.00003597
  192       -6.2612864043      -0.0000000124     0.999997    0.00003581
  193       -6.2612864166      -0.0000000123     0.999997    0.00003565
  194       -6.2612864288      -0.0000000122     0.999997    0.00003550
  195       -6.2612864409      -0.0000000121     0.999997    0.00003534
  196       -6.2612864529      -0.0000000120     0.999997    0.00003519
  197       -6.2612864648      -0.0000000119     0.999997    0.00003504
  198       -6.2612864766      -0.0000000118     0.999997    0.00003489
  199       -6.2612864883      -0.0000000117     0.999997    0.00003474
  200       -6.2612864999      -0.0000000116     0.999997    0.00003459
  201       -6.2612865114      -0.0000000115     0.999997    0.00003444
  202       -6.2612865229      -0.0000000114     0.999997    0.00003429
  203       -6.2612865342      -0.0000000113     0.999997    0.00003415
  204       -6.2612865454      -0.0000000112     0.999997    0.00003400
  205       -6.2612865566      -0.0000000111     0.999997    0.00003386
  206       -6.2612865676      -0.0000000110     0.999997    0.00003371
  207       -6.2612865786      -0.0000000110     0.999997    0.00003357
  208       -6.2612865894      -0.0000000109     0.999997    0.00003343
  209       -6.2612866002      -0.0000000108     0.999997    0.00003329
  210       -6.2612866109      -0.0000000107     0.999997    0.00003315
  211       -6.2612866215      -0.0000000106     0.999997    0.00003301
  212       -6.2612866320      -0.0000000105     0.999997    0.00003287
  213       -6.2612866425      -0.0000000104     0.999997    0.00003274
  214       -6.2612866528      -0.0000000103     0.999997    0.00003260
  215       -6.2612866631      -0.0000000103     0.999997    0.00003247
  216       -6.2612866733      -0.0000000102     0.999997    0.00003233
  217       -6.2612866834      -0.0000000101     0.999997    0.00003220
  218       -6.2612866934      -0.0000000100     0.999997    0.00003206
  219       -6.2612867033      -0.0000000099     0.999997    0.00003193
  220       -6.2612867132      -0.0000000099     0.999997    0.00003180
  221       -6.2612867230      -0.0000000098     0.999997    0.00003167
  222       -6.2612867327      -0.0000000097     0.999997    0.00003154
  223       -6.2612867423      -0.0000000096     0.999997    0.00003141
  224       -6.2612867519      -0.0000000096     0.999997    0.00003129
  225       -6.2612867613      -0.0000000095     0.999997    0.00003116
  226       -6.2612867707      -0.0000000094     0.999997    0.00003103
  227       -6.2612867801      -0.0000000093     0.999997    0.00003091
  228       -6.2612867893      -0.0000000093     0.999997    0.00003078
  229       -6.2612867985      -0.0000000092     0.999997    0.00003066
  230       -6.2612868076      -0.0000000091     0.999997    0.00003054
  231       -6.2612868167      -0.0000000090     0.999997    0.00003042
  232       -6.2612868256      -0.0000000090     0.999997    0.00003029
  233       -6.2612868345      -0.0000000089     0.999997    0.00003017
  234       -6.2612868434      -0.0000000088     0.999997    0.00003005
  235       -6.2612868522      -0.0000000088     0.999997    0.00002993
  236       -6.2612868609      -0.0000000087     0.999997    0.00002982
  237       -6.2612868695      -0.0000000086     0.999997    0.00002970
  238       -6.2612868781      -0.0000000086     0.999997    0.00002958
  239       -6.2612868866      -0.0000000085     0.999997    0.00002946
  240       -6.2612868950      -0.0000000084     0.999997    0.00002935
  241       -6.2612869034      -0.0000000084     0.999997    0.00002923
  242       -6.2612869117      -0.0000000083     0.999997    0.00002912
  243       -6.2612869199      -0.0000000082     0.999997    0.00002901
  244       -6.2612869281      -0.0000000082     0.999997    0.00002889
  245       -6.2612869362      -0.0000000081     0.999997    0.00002878
  246       -6.2612869443      -0.0000000081     0.999997    0.00002867
  247       -6.2612869523      -0.0000000080     0.999997    0.00002856
  248       -6.2612869602      -0.0000000079     0.999997    0.00002845
  249       -6.2612869681      -0.0000000079     0.999997    0.00002834
  250       -6.2612869760      -0.0000000078     0.999997    0.00002823
  251       -6.2612869837      -0.0000000078     0.999997    0.00002812
  252       -6.2612869914      -0.0000000077     0.999997    0.00002802
  253       -6.2612869991      -0.0000000077     0.999997    0.00002791
  254       -6.2612870067      -0.0000000076     0.999997    0.00002780
  255       -6.2612870142      -0.0000000075     0.999997    0.00002770
  256       -6.2612870217      -0.0000000075     0.999997    0.00002759
  257       -6.2612870291      -0.0000000074     0.999997    0.00002749
  258       -6.2612870365      -0.0000000074     0.999997    0.00002739
  259       -6.2612870438      -0.0000000073     0.999997    0.00002728
  260       -6.2612870511      -0.0000000073     0.999997    0.00002718
  261       -6.2612870583      -0.0000000072     0.999997    0.00002708
  262       -6.2612870655      -0.0000000072     0.999997    0.00002698
  263       -6.2612870726      -0.0000000071     0.999997    0.00002688
  264       -6.2612870797      -0.0000000071     0.999997    0.00002678
  265       -6.2612870867      -0.0000000070     0.999997    0.00002668
  266       -6.2612870936      -0.0000000070     0.999997    0.00002658
  267       -6.2612871005      -0.0000000069     0.999997    0.00002648
  268       -6.2612871074      -0.0000000069     0.999997    0.00002639
  269       -6.2612871142      -0.0000000068     0.999997    0.00002629
  270       -6.2612871210      -0.0000000068     0.999997    0.00002619
  271       -6.2612871277      -0.0000000067     0.999997    0.00002610
  272       -6.2612871344      -0.0000000067     0.999997    0.00002600
  273       -6.2612871410      -0.0000000066     0.999997    0.00002591
  274       -6.2612871476      -0.0000000066     0.999997    0.00002581
  275       -6.2612871541      -0.0000000065     0.999997    0.00002572
  276       -6.2612871606      -0.0000000065     0.999997    0.00002563
  277       -6.2612871670      -0.0000000064     0.999997    0.00002554
  278       -6.2612871734      -0.0000000064     0.999997    0.00002544
  279       -6.2612871797      -0.0000000063     0.999997    0.00002535
  280       -6.2612871860      -0.0000000063     0.999997    0.00002526
  281       -6.2612871923      -0.0000000063     0.999997    0.00002517
  282       -6.2612871985      -0.0000000062     0.999997    0.00002508
  283       -6.2612872047      -0.0000000062     0.999997    0.00002499
  284       -6.2612872108      -0.0000000061     0.999997    0.00002490
  285       -6.2612872169      -0.0000000061     0.999997    0.00002482
  286       -6.2612872230      -0.0000000060     0.999997    0.00002473
  287       -6.2612872290      -0.0000000060     0.999997    0.00002464
  288       -6.2612872349      -0.0000000060     0.999997    0.00002455
  289       -6.2612872409      -0.0000000059     0.999997    0.00002447
  290       -6.2612872467      -0.0000000059     0.999997    0.00002438
  291       -6.2612872526      -0.0000000058     0.999997    0.00002430
  292       -6.2612872584      -0.0000000058     0.999997    0.00002421
  293       -6.2612872642      -0.0000000058     0.999997    0.00002413
  294       -6.2612872699      -0.0000000057     0.999997    0.00002404
  295       -6.2612872756      -0.0000000057     0.999997    0.00002396
  296       -6.2612872812      -0.0000000057     0.999997    0.00002388
  297       -6.2612872868      -0.0000000056     0.999997    0.00002380
  298       -6.2612872924      -0.0000000056     0.999997    0.00002372
  299       -6.2612872980      -0.0000000055     0.999997    0.00002363
  300       -6.2612873035      -0.0000000055     0.999997    0.00002355
  301       -6.2612873089      -0.0000000055     0.999997    0.00002347
  302       -6.2612873144      -0.0000000054     0.999997    0.00002339
  303       -6.2612873197      -0.0000000054     0.999997    0.00002331
  304       -6.2612873251      -0.0000000054     0.999997    0.00002323
  305       -6.2612873304      -0.0000000053     0.999997    0.00002316
  306       -6.2612873357      -0.0000000053     0.999997    0.00002308
  307       -6.2612873410      -0.0000000053     0.999997    0.00002300
  308       -6.2612873462      -0.0000000052     0.999997    0.00002292
  309       -6.2612873514      -0.0000000052     0.999997    0.00002285
  310       -6.2612873565      -0.0000000052     0.999997    0.00002277
  311       -6.2612873616      -0.0000000051     0.999997    0.00002269
  312       -6.2612873667      -0.0000000051     0.999997    0.00002262
  313       -6.2612873718      -0.0000000051     0.999997    0.00002254
  314       -6.2612873768      -0.0000000050     0.999997    0.00002247
  315       -6.2612873818      -0.0000000050     0.999997    0.00002239
  316       -6.2612873867      -0.0000000050     0.999997    0.00002232
  317       -6.2612873917      -0.0000000049     0.999997    0.00002225
  318       -6.2612873966      -0.0000000049     0.999997    0.00002217
  319       -6.2612874014      -0.0000000049     0.999997    0.00002210
  320       -6.2612874063      -0.0000000048     0.999997    0.00002203
  321       -6.2612874111      -0.0000000048     0.999997    0.00002196
  322       -6.2612874158      -0.0000000048     0.999997    0.00002189
  323       -6.2612874206      -0.0000000047     0.999997    0.00002182
  324       -6.2612874253      -0.0000000047     0.999997    0.00002174
  325       -6.2612874300      -0.0000000047     0.999997    0.00002167
  326       -6.2612874346      -0.0000000047     0.999997    0.00002160
  327       -6.2612874392      -0.0000000046     0.999997    0.00002154
  328       -6.2612874438      -0.0000000046     0.999997    0.00002147
  329       -6.2612874484      -0.0000000046     0.999997    0.00002140
  330       -6.2612874529      -0.0000000045     0.999997    0.00002133
  331       -6.2612874574      -0.0000000045     0.999997    0.00002126
  332       -6.2612874619      -0.0000000045     0.999997    0.00002119
  333       -6.2612874664      -0.0000000045     0.999997    0.00002113
  334       -6.2612874708      -0.0000000044     0.999997    0.00002106
  335       -6.2612874752      -0.0000000044     0.999997    0.00002099
  336       -6.2612874796      -0.0000000044     0.999997    0.00002093
  337       -6.2612874839      -0.0000000043     0.999997    0.00002086
  338       -6.2612874882      -0.0000000043     0.999997    0.00002080
  339       -6.2612874925      -0.0000000043     0.999997    0.00002073
  340       -6.2612874968      -0.0000000043     0.999997    0.00002067
  341       -6.2612875010      -0.0000000042     0.999997    0.00002060
  342       -6.2612875053      -0.0000000042     0.999997    0.00002054
  343       -6.2612875095      -0.0000000042     0.999997    0.00002047
  344       -6.2612875136      -0.0000000042     0.999997    0.00002041
  345       -6.2612875178      -0.0000000041     0.999997    0.00002035
  346       -6.2612875219      -0.0000000041     0.999997    0.00002029
  347       -6.2612875260      -0.0000000041     0.999997    0.00002022
  348       -6.2612875300      -0.0000000041     0.999997    0.00002016
  349       -6.2612875341      -0.0000000040     0.999997    0.00002010
  350       -6.2612875381      -0.0000000040     0.999997    0.00002004
  351       -6.2612875421      -0.0000000040     0.999997    0.00001998
  352       -6.2612875461      -0.0000000040     0.999997    0.00001992
  353       -6.2612875500      -0.0000000039     0.999997    0.00001986
  354       -6.2612875539      -0.0000000039     0.999997    0.00001980
  355       -6.2612875578      -0.0000000039     0.999997    0.00001974
  356       -6.2612875617      -0.0000000039     0.999997    0.00001968
  357       -6.2612875656      -0.0000000039     0.999997    0.00001962
  358       -6.2612875694      -0.0000000038     0.999997    0.00001956
  359       -6.2612875732      -0.0000000038     0.999997    0.00001950
  360       -6.2612875770      -0.0000000038     0.999997    0.00001944
  361       -6.2612875808      -0.0000000038     0.999997    0.00001939
  362       -6.2612875845      -0.0000000037     0.999997    0.00001933
  363       -6.2612875883      -0.0000000037     0.999997    0.00001927
  364       -6.2612875920      -0.0000000037     0.999997    0.00001921
  365       -6.2612875956      -0.0000000037     0.999997    0.00001916
  366       -6.2612875993      -0.0000000037     0.999997    0.00001910
  367       -6.2612876029      -0.0000000036     0.999997    0.00001905
  368       -6.2612876066      -0.0000000036     0.999997    0.00001899
  369       -6.2612876102      -0.0000000036     0.999997    0.00001894
  370       -6.2612876137      -0.0000000036     0.999997    0.00001888
  371       -6.2612876173      -0.0000000036     0.999997    0.00001883
  372       -6.2612876208      -0.0000000035     0.999997    0.00001877
  373       -6.2612876244      -0.0000000035     0.999997    0.00001872
  374       -6.2612876279      -0.0000000035     0.999997    0.00001866
  375       -6.2612876313      -0.0000000035     0.999997    0.00001861
  376       -6.2612876348      -0.0000000035     0.999997    0.00001856
  377       -6.2612876383      -0.0000000034     0.999997    0.00001850
  378       -6.2612876417      -0.0000000034     0.999997    0.00001845
  379       -6.2612876451      -0.0000000034     0.999997    0.00001840
  380       -6.2612876485      -0.0000000034     0.999997    0.00001834
  381       -6.2612876518      -0.0000000034     0.999997    0.00001829
  382       -6.2612876552      -0.0000000033     0.999997    0.00001824
  383       -6.2612876585      -0.0000000033     0.999997    0.00001819
  384       -6.2612876618      -0.0000000033     0.999997    0.00001814
  385       -6.2612876651      -0.0000000033     0.999997    0.00001809
  386       -6.2612876684      -0.0000000033     0.999997    0.00001804
  387       -6.2612876716      -0.0000000033     0.999997    0.00001799
  388       -6.2612876749      -0.0000000032     0.999997    0.00001794
  389       -6.2612876781      -0.0000000032     0.999997    0.00001789
  390       -6.2612876813      -0.0000000032     0.999997    0.00001784
  391       -6.2612876845      -0.0000000032     0.999997    0.00001779
  392       -6.2612876877      -0.0000000032     0.999997    0.00001774
  393       -6.2612876908      -0.0000000032     0.999997    0.00001769
  394       -6.2612876940      -0.0000000031     0.999997    0.00001764
  395       -6.2612876971      -0.0000000031     0.999997    0.00001759
  396       -6.2612877002      -0.0000000031     0.999997    0.00001754
  397       -6.2612877033      -0.0000000031     0.999997    0.00001750
  398       -6.2612877064      -0.0000000031     0.999997    0.00001745
  399       -6.2612877094      -0.0000000031     0.999997    0.00001740
  400       -6.2612877124      -0.0000000030     0.999997    0.00001735
  401       -6.2612877155      -0.0000000030     0.999997    0.00001731
  402       -6.2612877185      -0.0000000030     0.999997    0.00001726
  403       -6.2612877215      -0.0000000030     0.999997    0.00001721
  404       -6.2612877244      -0.0000000030     0.999997    0.00001717
  405       -6.2612877274      -0.0000000030     0.999997    0.00001712
  406       -6.2612877304      -0.0000000029     0.999997    0.00001708
  407       -6.2612877333      -0.0000000029     0.999997    0.00001703
  408       -6.2612877362      -0.0000000029     0.999997    0.00001699
  409       -6.2612877391      -0.0000000029     0.999997    0.00001694
  410       -6.2612877420      -0.0000000029     0.999997    0.00001690
  411       -6.2612877449      -0.0000000029     0.999997    0.00001685
  412       -6.2612877477      -0.0000000029     0.999997    0.00001681
  413       -6.2612877506      -0.0000000028     0.999997    0.00001676
  414       -6.2612877534      -0.0000000028     0.999997    0.00001672
  415       -6.2612877562      -0.0000000028     0.999997    0.00001668
  416       -6.2612877590      -0.0000000028     0.999997    0.00001663
  417       -6.2612877618      -0.0000000028     0.999997    0.00001659
  418       -6.2612877645      -0.0000000028     0.999997    0.00001655
  419       -6.2612877673      -0.0000000028     0.999997    0.00001650
  420       -6.2612877700      -0.0000000027     0.999997    0.00001646
  421       -6.2612877728      -0.0000000027     0.999997    0.00001642
  422       -6.2612877755      -0.0000000027     0.999997    0.00001638
  423       -6.2612877782      -0.0000000027     0.999997    0.00001633
  424       -6.2612877809      -0.0000000027     0.999997    0.00001629
  425       -6.2612877836      -0.0000000027     0.999997    0.00001625
  426       -6.2612877862      -0.0000000027     0.999997    0.00001621
  427       -6.2612877889      -0.0000000026     0.999997    0.00001617
  428       -6.2612877915      -0.0000000026     0.999997    0.00001613
  429       -6.2612877941      -0.0000000026     0.999997    0.00001609
  430       -6.2612877967      -0.0000000026     0.999997    0.00001605
  431       -6.2612877993      -0.0000000026     0.999997    0.00001600
  432       -6.2612878019      -0.0000000026     0.999997    0.00001596
  433       -6.2612878045      -0.0000000026     0.999997    0.00001592
  434       -6.2612878070      -0.0000000026     0.999997    0.00001589
  435       -6.2612878096      -0.0000000025     0.999997    0.00001585
  436       -6.2612878121      -0.0000000025     0.999997    0.00001581
  437       -6.2612878147      -0.0000000025     0.999997    0.00001577
  438       -6.2612878172      -0.0000000025     0.999997    0.00001573
  439       -6.2612878197      -0.0000000025     0.999997    0.00001569
  440       -6.2612878222      -0.0000000025     0.999997    0.00001565
  441       -6.2612878246      -0.0000000025     0.999997    0.00001561
  442       -6.2612878271      -0.0000000025     0.999997    0.00001557
  443       -6.2612878295      -0.0000000025     0.999997    0.00001554
  444       -6.2612878320      -0.0000000024     0.999997    0.00001550
  445       -6.2612878344      -0.0000000024     0.999997    0.00001546
  446       -6.2612878368      -0.0000000024     0.999997    0.00001542
  447       -6.2612878392      -0.0000000024     0.999997    0.00001539
  448       -6.2612878416      -0.0000000024     0.999997    0.00001535
  449       -6.2612878440      -0.0000000024     0.999997    0.00001531
  450       -6.2612878464      -0.0000000024     0.999997    0.00001527
  451       -6.2612878487      -0.0000000024     0.999997    0.00001524
  452       -6.2612878511      -0.0000000024     0.999997    0.00001520
  453       -6.2612878534      -0.0000000023     0.999997    0.00001517
  454       -6.2612878558      -0.0000000023     0.999997    0.00001513
  455       -6.2612878581      -0.0000000023     0.999997    0.00001509
  456       -6.2612878604      -0.0000000023     0.999997    0.00001506
  457       -6.2612878627      -0.0000000023     0.999997    0.00001502
  458       -6.2612878650      -0.0000000023     0.999997    0.00001499
  459       -6.2612878672      -0.0000000023     0.999997    0.00001495
  460       -6.2612878695      -0.0000000023     0.999997    0.00001492
  461       -6.2612878718      -0.0000000023     0.999997    0.00001488
  462       -6.2612878740      -0.0000000022     0.999997    0.00001485
  463       -6.2612878763      -0.0000000022     0.999997    0.00001481
  464       -6.2612878785      -0.0000000022     0.999997    0.00001478
  465       -6.2612878807      -0.0000000022     0.999997    0.00001474
  466       -6.2612878829      -0.0000000022     0.999997    0.00001471
  467       -6.2612878851      -0.0000000022     0.999997    0.00001468
  468       -6.2612878873      -0.0000000022     0.999997    0.00001464
  469       -6.2612878895      -0.0000000022     0.999997    0.00001461
  470       -6.2612878916      -0.0000000022     0.999997    0.00001458
  471       -6.2612878938      -0.0000000022     0.999997    0.00001454
  472       -6.2612878959      -0.0000000021     0.999997    0.00001451
  473       -6.2612878981      -0.0000000021     0.999997    0.00001448
  474       -6.2612879002      -0.0000000021     0.999997    0.00001444
  475       -6.2612879023      -0.0000000021     0.999997    0.00001441
  476       -6.2612879044      -0.0000000021     0.999997    0.00001438
  477       -6.2612879065      -0.0000000021     0.999997    0.00001435
  478       -6.2612879086      -0.0000000021     0.999997    0.00001431
  479       -6.2612879107      -0.0000000021     0.999997    0.00001428
  480       -6.2612879128      -0.0000000021     0.999997    0.00001425
  481       -6.2612879148      -0.0000000021     0.999997    0.00001422
  482       -6.2612879169      -0.0000000021     0.999997    0.00001419
  483       -6.2612879189      -0.0000000020     0.999997    0.00001416
  484       -6.2612879210      -0.0000000020     0.999997    0.00001413
  485       -6.2612879230      -0.0000000020     0.999997    0.00001409
  486       -6.2612879250      -0.0000000020     0.999997    0.00001406
  487       -6.2612879270      -0.0000000020     0.999997    0.00001403
  488       -6.2612879290      -0.0000000020     0.999997    0.00001400
  489       -6.2612879310      -0.0000000020     0.999997    0.00001397
  490       -6.2612879330      -0.0000000020     0.999997    0.00001394
  491       -6.2612879350      -0.0000000020     0.999997    0.00001391
  492       -6.2612879370      -0.0000000020     0.999997    0.00001388
  493       -6.2612879389      -0.0000000020     0.999997    0.00001385
  494       -6.2612879409      -0.0000000020     0.999997    0.00001382
  495       -6.2612879428      -0.0000000019     0.999997    0.00001379
  496       -6.2612879448      -0.0000000019     0.999997    0.00001376
  497       -6.2612879467      -0.0000000019     0.999997    0.00001373
  498       -6.2612879486      -0.0000000019     0.999997    0.00001370
  499       -6.2612879505      -0.0000000019     0.999997    0.00001367
  500       -6.2612879524      -0.0000000019     0.999997    0.00001365
  501       -6.2612879543      -0.0000000019     0.999997    0.00001362
  502       -6.2612879562      -0.0000000019     0.999997    0.00001359
  503       -6.2612879581      -0.0000000019     0.999997    0.00001356
  504       -6.2612879600      -0.0000000019     0.999997    0.00001353
  505       -6.2612879619      -0.0000000019     0.999997    0.00001350
  506       -6.2612879637      -0.0000000019     0.999997    0.00001347
  507       -6.2612879656      -0.0000000019     0.999997    0.00001345
  508       -6.2612879674      -0.0000000018     0.999997    0.00001342
  509       -6.2612879693      -0.0000000018     0.999997    0.00001339
  510       -6.2612879711      -0.0000000018     0.999997    0.00001336
  511       -6.2612879729      -0.0000000018     0.999997    0.00001334
  512       -6.2612879747      -0.0000000018     0.999997    0.00001331
  513       -6.2612879765      -0.0000000018     0.999997    0.00001328
  514       -6.2612879783      -0.0000000018     0.999997    0.00001325
  515       -6.2612879801      -0.0000000018     0.999997    0.00001323
  516       -6.2612879819      -0.0000000018     0.999997    0.00001320
  517       -6.2612879837      -0.0000000018     0.999997    0.00001317
  518       -6.2612879855      -0.0000000018     0.999997    0.00001315
  519       -6.2612879872      -0.0000000018     0.999997    0.00001312
  520       -6.2612879890      -0.0000000018     0.999997    0.00001309
  521       -6.2612879908      -0.0000000018     0.999997    0.00001307
  522       -6.2612879925      -0.0000000017     0.999997    0.00001304
  523       -6.2612879942      -0.0000000017     0.999997    0.00001302
  524       -6.2612879960      -0.0000000017     0.999997    0.00001299
  525       -6.2612879977      -0.0000000017     0.999997    0.00001296
  526       -6.2612879994      -0.0000000017     0.999997    0.00001294
  527       -6.2612880011      -0.0000000017     0.999997    0.00001291
  528       -6.2612880028      -0.0000000017     0.999997    0.00001289
  529       -6.2612880045      -0.0000000017     0.999997    0.00001286
  530       -6.2612880062      -0.0000000017     0.999997    0.00001284
  531       -6.2612880079      -0.0000000017     0.999997    0.00001281
  532       -6.2612880096      -0.0000000017     0.999997    0.00001279
  533       -6.2612880113      -0.0000000017     0.999997    0.00001276
  534       -6.2612880129      -0.0000000017     0.999997    0.00001274
  535       -6.2612880146      -0.0000000017     0.999997    0.00001271
  536       -6.2612880163      -0.0000000017     0.999997    0.00001269
  537       -6.2612880179      -0.0000000017     0.999997    0.00001267
  538       -6.2612880196      -0.0000000016     0.999997    0.00001264
  539       -6.2612880212      -0.0000000016     0.999997    0.00001262
  540       -6.2612880228      -0.0000000016     0.999997    0.00001259
  541       -6.2612880245      -0.0000000016     0.999997    0.00001257
  542       -6.2612880261      -0.0000000016     0.999997    0.00001255
  543       -6.2612880277      -0.0000000016     0.999997    0.00001252
  544       -6.2612880293      -0.0000000016     0.999997    0.00001250
  545       -6.2612880309      -0.0000000016     0.999997    0.00001247
  546       -6.2612880325      -0.0000000016     0.999997    0.00001245
  547       -6.2612880341      -0.0000000016     0.999997    0.00001243
  548       -6.2612880357      -0.0000000016     0.999997    0.00001240
  549       -6.2612880373      -0.0000000016     0.999997    0.00001238
  550       -6.2612880388      -0.0000000016     0.999997    0.00001236
  551       -6.2612880404      -0.0000000016     0.999997    0.00001234
  552       -6.2612880420      -0.0000000016     0.999997    0.00001231
  553       -6.2612880435      -0.0000000016     0.999997    0.00001229
  554       -6.2612880451      -0.0000000016     0.999997    0.00001227
  555       -6.2612880466      -0.0000000015     0.999997    0.00001225
  556       -6.2612880482      -0.0000000015     0.999997    0.00001222
  557       -6.2612880497      -0.0000000015     0.999997    0.00001220
  558       -6.2612880512      -0.0000000015     0.999997    0.00001218
  559       -6.2612880527      -0.0000000015     0.999997    0.00001216
  560       -6.2612880543      -0.0000000015     0.999997    0.00001214
  561       -6.2612880558      -0.0000000015     0.999997    0.00001211
  562       -6.2612880573      -0.0000000015     0.999997    0.00001209
  563       -6.2612880588      -0.0000000015     0.999997    0.00001207
  564       -6.2612880603      -0.0000000015     0.999997    0.00001205
  565       -6.2612880618      -0.0000000015     0.999997    0.00001203
  566       -6.2612880633      -0.0000000015     0.999997    0.00001201
  567       -6.2612880648      -0.0000000015     0.999997    0.00001198
  568       -6.2612880662      -0.0000000015     0.999997    0.00001196
  569       -6.2612880677      -0.0000000015     0.999997    0.00001194
  570       -6.2612880692      -0.0000000015     0.999997    0.00001192
  571       -6.2612880706      -0.0000000015     0.999997    0.00001190
  572       -6.2612880721      -0.0000000015     0.999997    0.00001188
  573       -6.2612880735      -0.0000000015     0.999997    0.00001186
  574       -6.2612880750      -0.0000000014     0.999997    0.00001184
  575       -6.2612880764      -0.0000000014     0.999997    0.00001182
  576       -6.2612880779      -0.0000000014     0.999997    0.00001180
  577       -6.2612880793      -0.0000000014     0.999997    0.00001178
  578       -6.2612880807      -0.0000000014     0.999997    0.00001176
  579       -6.2612880822      -0.0000000014     0.999997    0.00001174
  580       -6.2612880836      -0.0000000014     0.999997    0.00001172
  581       -6.2612880850      -0.0000000014     0.999997    0.00001170
  582       -6.2612880864      -0.0000000014     0.999997    0.00001168
  583       -6.2612880878      -0.0000000014     0.999997    0.00001166
  584       -6.2612880892      -0.0000000014     0.999997    0.00001164
  585       -6.2612880906      -0.0000000014     0.999997    0.00001162
  586       -6.2612880920      -0.0000000014     0.999997    0.00001160
  587       -6.2612880934      -0.0000000014     0.999997    0.00001158
  588       -6.2612880948      -0.0000000014     0.999997    0.00001156
  589       -6.2612880962      -0.0000000014     0.999997    0.00001154
  590       -6.2612880975      -0.0000000014     0.999997    0.00001152
  591       -6.2612880989      -0.0000000014     0.999997    0.00001150
  592       -6.2612881003      -0.0000000014     0.999997    0.00001149
  593       -6.2612881016      -0.0000000014     0.999997    0.00001147
  594       -6.2612881030      -0.0000000014     0.999997    0.00001145
  595       -6.2612881043      -0.0000000014     0.999997    0.00001143
  596       -6.2612881057      -0.0000000013     0.999997    0.00001141
  597       -6.2612881070      -0.0000000013     0.999997    0.00001139
  598       -6.2612881084      -0.0000000013     0.999997    0.00001137
  599       -6.2612881097      -0.0000000013     0.999997    0.00001136
  600       -6.2612881110      -0.0000000013     0.999997    0.00001134
  601       -6.2612881124      -0.0000000013     0.999997    0.00001132
  602       -6.2612881137      -0.0000000013     0.999997    0.00001130
  603       -6.2612881150      -0.0000000013     0.999997    0.00001128
  604       -6.2612881163      -0.0000000013     0.999997    0.00001127
  605       -6.2612881177      -0.0000000013     0.999997    0.00001125
  606       -6.2612881190      -0.0000000013     0.999997    0.00001123
  607       -6.2612881203      -0.0000000013     0.999997    0.00001121
  608       -6.2612881216      -0.0000000013     0.999997    0.00001120
  609       -6.2612881229      -0.0000000013     0.999997    0.00001118
  610       -6.2612881242      -0.0000000013     0.999997    0.00001116
  611       -6.2612881254      -0.0000000013     0.999997    0.00001114
  612       -6.2612881267      -0.0000000013     0.999997    0.00001113
  613       -6.2612881280      -0.0000000013     0.999997    0.00001111
  614       -6.2612881293      -0.0000000013     0.999997    0.00001109
  615       -6.2612881306      -0.0000000013     0.999997    0.00001107
  616       -6.2612881318      -0.0000000013     0.999997    0.00001106
  617       -6.2612881331      -0.0000000013     0.999997    0.00001104
  618       -6.2612881344      -0.0000000013     0.999997    0.00001102
  619       -6.2612881356      -0.0000000013     0.999997    0.00001101
  620       -6.2612881369      -0.0000000013     0.999997    0.00001099
  621       -6.2612881381      -0.0000000013     0.999997    0.00001097
  622       -6.2612881394      -0.0000000012     0.999997    0.00001096
  623       -6.2612881406      -0.0000000012     0.999997    0.00001094
  624       -6.2612881419      -0.0000000012     0.999997    0.00001093
  625       -6.2612881431      -0.0000000012     0.999997    0.00001091
  626       -6.2612881443      -0.0000000012     0.999997    0.00001089
  627       -6.2612881456      -0.0000000012     0.999997    0.00001088
  628       -6.2612881468      -0.0000000012     0.999997    0.00001086
  629       -6.2612881480      -0.0000000012     0.999997    0.00001085
  630       -6.2612881492      -0.0000000012     0.999997    0.00001083
  631       -6.2612881504      -0.0000000012     0.999997    0.00001081
  632       -6.2612881517      -0.0000000012     0.999997    0.00001080
  633       -6.2612881529      -0.0000000012     0.999997    0.00001078
  634       -6.2612881541      -0.0000000012     0.999997    0.00001077
  635       -6.2612881553      -0.0000000012     0.999997    0.00001075
  636       -6.2612881565      -0.0000000012     0.999997    0.00001074
  637       -6.2612881577      -0.0000000012     0.999997    0.00001072
  638       -6.2612881589      -0.0000000012     0.999997    0.00001071
  639       -6.2612881601      -0.0000000012     0.999997    0.00001069
  640       -6.2612881612      -0.0000000012     0.999997    0.00001068
  641       -6.2612881624      -0.0000000012     0.999997    0.00001066
  642       -6.2612881636      -0.0000000012     0.999997    0.00001065
  643       -6.2612881648      -0.0000000012     0.999997    0.00001063
  644       -6.2612881660      -0.0000000012     0.999997    0.00001062
  645       -6.2612881671      -0.0000000012     0.999997    0.00001060
  646       -6.2612881683      -0.0000000012     0.999997    0.00001059
  647       -6.2612881695      -0.0000000012     0.999997    0.00001057
  648       -6.2612881706      -0.0000000012     0.999997    0.00001056
  649       -6.2612881718      -0.0000000012     0.999997    0.00001054
  650       -6.2612881729      -0.0000000012     0.999997    0.00001053
  651       -6.2612881741      -0.0000000012     0.999997    0.00001051
  652       -6.2612881752      -0.0000000011     0.999997    0.00001050
  653       -6.2612881764      -0.0000000011     0.999997    0.00001049
  654       -6.2612881775      -0.0000000011     0.999997    0.00001047
  655       -6.2612881787      -0.0000000011     0.999997    0.00001046
  656       -6.2612881798      -0.0000000011     0.999997    0.00001044
  657       -6.2612881809      -0.0000000011     0.999997    0.00001043
  658       -6.2612881821      -0.0000000011     0.999997    0.00001042
  659       -6.2612881832      -0.0000000011     0.999997    0.00001040
  660       -6.2612881843      -0.0000000011     0.999997    0.00001039
  661       -6.2612881855      -0.0000000011     0.999997    0.00001037
  662       -6.2612881866      -0.0000000011     0.999997    0.00001036
  663       -6.2612881877      -0.0000000011     0.999997    0.00001035
  664       -6.2612881888      -0.0000000011     0.999997    0.00001033
  665       -6.2612881899      -0.0000000011     0.999997    0.00001032
  666       -6.2612881910      -0.0000000011     0.999997    0.00001031
  667       -6.2612881921      -0.0000000011     0.999997    0.00001029
  668       -6.2612881932      -0.0000000011     0.999997    0.00001028
  669       -6.2612881943      -0.0000000011     0.999997    0.00001027
  670       -6.2612881954      -0.0000000011     0.999997    0.00001025
  671       -6.2612881965      -0.0000000011     0.999997    0.00001024
  672       -6.2612881976      -0.0000000011     0.999997    0.00001023
  673       -6.2612881987      -0.0000000011     0.999997    0.00001022
  674       -6.2612881998      -0.0000000011     0.999997    0.00001020
  675       -6.2612882009      -0.0000000011     0.999997    0.00001019
  676       -6.2612882020      -0.0000000011     0.999997    0.00001018
  677       -6.2612882031      -0.0000000011     0.999997    0.00001016
  678       -6.2612882041      -0.0000000011     0.999997    0.00001015
  679       -6.2612882052      -0.0000000011     0.999997    0.00001014
  680       -6.2612882063      -0.0000000011     0.999997    0.00001013
  681       -6.2612882073      -0.0000000011     0.999997    0.00001011
  682       -6.2612882084      -0.0000000011     0.999997    0.00001010
  683       -6.2612882095      -0.0000000011     0.999997    0.00001009
  684       -6.2612882105      -0.0000000011     0.999997    0.00001008
  685       -6.2612882116      -0.0000000011     0.999997    0.00001007
  686       -6.2612882127      -0.0000000011     0.999997    0.00001005
  687       -6.2612882137      -0.0000000011     0.999997    0.00001004
  688       -6.2612882148      -0.0000000011     0.999997    0.00001003
  689       -6.2612882158      -0.0000000011     0.999997    0.00001002
  690       -6.2612882169      -0.0000000010     0.999997    0.00001001
  691       -6.2612882179      -0.0000000010     0.999997    0.00000999
  692       -6.2612882190      -0.0000000010     0.999997    0.00000998
  693       -6.2612882200      -0.0000000010     0.999997    0.00000997
  694       -6.2612882210      -0.0000000010     0.999997    0.00000996
  695       -6.2612882221      -0.0000000010     0.999997    0.00000995
  696       -6.2612882231      -0.0000000010     0.999997    0.00000994
  697       -6.2612882241      -0.0000000010     0.999997    0.00000992
  698       -6.2612882252      -0.0000000010     0.999997    0.00000991
  699       -6.2612882262      -0.0000000010     0.999997    0.00000990
  700       -6.2612882272      -0.0000000010     0.999997    0.00000989
  701       -6.2612882282      -0.0000000010     0.999997    0.00000988
  702       -6.2612882293      -0.0000000010     0.999997    0.00000987
  703       -6.2612882303      -0.0000000010     0.999997    0.00000986
  704       -6.2612882313      -0.0000000010     0.999997    0.00000985
  705       -6.2612882323      -0.0000000010     0.999997    0.00000983
  706       -6.2612882333      -0.0000000010     0.999997    0.00000982
  707       -6.2612882343      -0.0000000010     0.999997    0.00000981
  708       -6.2612882353      -0.0000000010     0.999997    0.00000980
  709       -6.2612882364      -0.0000000010     0.999997    0.00000979
  710       -6.2612882374      -0.0000000010     0.999997    0.00000978
  711       -6.2612882384      -0.0000000010     0.999997    0.00000977
  712       -6.2612882394      -0.0000000010     0.999997    0.00000976
  713       -6.2612882404      -0.0000000010     0.999997    0.00000975
  714       -6.2612882414      -0.0000000010     0.999997    0.00000974
  715       -6.2612882423      -0.0000000010     0.999997    0.00000973
  716       -6.2612882433      -0.0000000010     0.999997    0.00000972
  717       -6.2612882443      -0.0000000010     0.999997    0.00000971
  718       -6.2612882453      -0.0000000010     0.999997    0.00000970
  719       -6.2612882463      -0.0000000010     0.999997    0.00000969
  720       -6.2612882473      -0.0000000010     0.999997    0.00000968
  721       -6.2612882483      -0.0000000010     0.999997    0.00000967
  722       -6.2612882492      -0.0000000010     0.999997    0.00000966
  723       -6.2612882502      -0.0000000010     0.999997    0.00000965
  724       -6.2612882512      -0.0000000010     0.999997    0.00000964
  725       -6.2612882522      -0.0000000010     0.999997    0.00000963
  726       -6.2612882531      -0.0000000010     0.999997    0.00000962
  727       -6.2612882541      -0.0000000010     0.999997    0.00000961
  728       -6.2612882551      -0.0000000010     0.999997    0.00000960
  729       -6.2612882560      -0.0000000010     0.999997    0.00000959
  730       -6.2612882570      -0.0000000010     0.999997    0.00000958
  731       -6.2612882580      -0.0000000010     0.999997    0.00000957
  732       -6.2612882589      -0.0000000010     0.999997    0.00000956
  733       -6.2612882599      -0.0000000010     0.999997    0.00000955
  734       -6.2612882608      -0.0000000010     0.999997    0.00000954
  735       -6.2612882618      -0.0000000010     0.999997    0.00000953
  736       -6.2612882628      -0.0000000010     0.999997    0.00000952
  737       -6.2612882637      -0.0000000010     0.999997    0.00000951
  738       -6.2612882647      -0.0000000010     0.999997    0.00000950
  739       -6.2612882656      -0.0000000009     0.999997    0.00000949
  740       -6.2612882666      -0.0000000009     0.999997    0.00000948
  741       -6.2612882675      -0.0000000009     0.999997    0.00000947
  742       -6.2612882684      -0.0000000009     0.999997    0.00000946
  743       -6.2612882694      -0.0000000009     0.999997    0.00000946
  744       -6.2612882703      -0.0000000009     0.999997    0.00000945
  745       -6.2612882713      -0.0000000009     0.999997    0.00000944
  746       -6.2612882722      -0.0000000009     0.999997    0.00000943
  747       -6.2612882731      -0.0000000009     0.999997    0.00000942
  748       -6.2612882741      -0.0000000009     0.999997    0.00000941
  749       -6.2612882750      -0.0000000009     0.999997    0.00000940
  750       -6.2612882759      -0.0000000009     0.999997    0.00000939
  751       -6.2612882769      -0.0000000009     0.999997    0.00000939
  752       -6.2612882778      -0.0000000009     0.999997    0.00000938
  753       -6.2612882787      -0.0000000009     0.999997    0.00000937
  754       -6.2612882796      -0.0000000009     0.999997    0.00000936
  755       -6.2612882806      -0.0000000009     0.999997    0.00000935
  756       -6.2612882815      -0.0000000009     0.999997    0.00000934
  757       -6.2612882824      -0.0000000009     0.999997    0.00000933
  758       -6.2612882833      -0.0000000009     0.999997    0.00000933
  759       -6.2612882842      -0.0000000009     0.999997    0.00000932
  760       -6.2612882851      -0.0000000009     0.999997    0.00000931
  761       -6.2612882860      -0.0000000009     0.999997    0.00000930
  762       -6.2612882870      -0.0000000009     0.999997    0.00000929
  763       -6.2612882879      -0.0000000009     0.999997    0.00000929
  764       -6.2612882888      -0.0000000009     0.999997    0.00000928
  765       -6.2612882897      -0.0000000009     0.999997    0.00000927
  766       -6.2612882906      -0.0000000009     0.999997    0.00000926
  767       -6.2612882915      -0.0000000009     0.999997    0.00000925
  768       -6.2612882924      -0.0000000009     0.999997    0.00000925
  769       -6.2612882933      -0.0000000009     0.999997    0.00000924
  770       -6.2612882942      -0.0000000009     0.999997    0.00000923
  771       -6.2612882951      -0.0000000009     0.999997    0.00000922
  772       -6.2612882960      -0.0000000009     0.999997    0.00000922
  773       -6.2612882969      -0.0000000009     0.999997    0.00000921
  774       -6.2612882978      -0.0000000009     0.999997    0.00000920
  775       -6.2612882987      -0.0000000009     0.999997    0.00000919
  776       -6.2612882996      -0.0000000009     0.999997    0.00000919
  777       -6.2612883005      -0.0000000009     0.999997    0.00000918
  778       -6.2612883013      -0.0000000009     0.999997    0.00000917
  779       -6.2612883022      -0.0000000009     0.999997    0.00000916
  780       -6.2612883031      -0.0000000009     0.999997    0.00000916
  781       -6.2612883040      -0.0000000009     0.999997    0.00000915
  782       -6.2612883049      -0.0000000009     0.999997    0.00000914
  783       -6.2612883058      -0.0000000009     0.999997    0.00000913
  784       -6.2612883066      -0.0000000009     0.999997    0.00000913
  785       -6.2612883075      -0.0000000009     0.999997    0.00000912
  786       -6.2612883084      -0.0000000009     0.999997    0.00000911
  787       -6.2612883093      -0.0000000009     0.999997    0.00000911
  788       -6.2612883102      -0.0000000009     0.999997    0.00000910
  789       -6.2612883110      -0.0000000009     0.999997    0.00000909
  790       -6.2612883119      -0.0000000009     0.999997    0.00000909
  791       -6.2612883128      -0.0000000009     0.999997    0.00000908
  792       -6.2612883137      -0.0000000009     0.999997    0.00000907
  793       -6.2612883145      -0.0000000009     0.999997    0.00000907
  794       -6.2612883154      -0.0000000009     0.999997    0.00000906
  795       -6.2612883163      -0.0000000009     0.999997    0.00000905
  796       -6.2612883171      -0.0000000009     0.999997    0.00000905
  797       -6.2612883180      -0.0000000009     0.999997    0.00000904
  798       -6.2612883189      -0.0000000009     0.999997    0.00000903
  799       -6.2612883197      -0.0000000009     0.999997    0.00000903
  800       -6.2612883206      -0.0000000009     0.999997    0.00000902
  801       -6.2612883214      -0.0000000009     0.999997    0.00000901
  802       -6.2612883223      -0.0000000009     0.999997    0.00000901
  803       -6.2612883232      -0.0000000009     0.999997    0.00000900
  804       -6.2612883240      -0.0000000009     0.999997    0.00000899
  805       -6.2612883249      -0.0000000009     0.999997    0.00000899
  806       -6.2612883257      -0.0000000009     0.999997    0.00000898
  807       -6.2612883266      -0.0000000009     0.999997    0.00000898
  808       -6.2612883274      -0.0000000009     0.999997    0.00000897
  809       -6.2612883283      -0.0000000009     0.999997    0.00000896
  810       -6.2612883291      -0.0000000009     0.999997    0.00000896
  811       -6.2612883300      -0.0000000008     0.999997    0.00000895
  812       -6.2612883308      -0.0000000008     0.999997    0.00000895
  813       -6.2612883317      -0.0000000008     0.999997    0.00000894
  814       -6.2612883325      -0.0000000008     0.999997    0.00000893
  815       -6.2612883334      -0.0000000008     0.999997    0.00000893
  816       -6.2612883342      -0.0000000008     0.999997    0.00000892
  817       -6.2612883351      -0.0000000008     0.999997    0.00000892
  818       -6.2612883359      -0.0000000008     0.999997    0.00000891
  819       -6.2612883367      -0.0000000008     0.999997    0.00000891
  820       -6.2612883376      -0.0000000008     0.999997    0.00000890
  821       -6.2612883384      -0.0000000008     0.999997    0.00000889
  822       -6.2612883393      -0.0000000008     0.999997    0.00000889
  823       -6.2612883401      -0.0000000008     0.999997    0.00000888
  824       -6.2612883409      -0.0000000008     0.999997    0.00000888
  825       -6.2612883418      -0.0000000008     0.999997    0.00000887
  826       -6.2612883426      -0.0000000008     0.999997    0.00000887
  827       -6.2612883434      -0.0000000008     0.999997    0.00000886
  828       -6.2612883443      -0.0000000008     0.999997    0.00000886
  829       -6.2612883451      -0.0000000008     0.999997    0.00000885
  830       -6.2612883459      -0.0000000008     0.999997    0.00000885
  831       -6.2612883468      -0.0000000008     0.999997    0.00000884
  832       -6.2612883476      -0.0000000008     0.999997    0.00000884
  833       -6.2612883484      -0.0000000008     0.999997    0.00000883
  834       -6.2612883493      -0.0000000008     0.999997    0.00000883
  835       -6.2612883501      -0.0000000008     0.999997    0.00000882
  836       -6.2612883509      -0.0000000008     0.999997    0.00000882
  837       -6.2612883517      -0.0000000008     0.999997    0.00000881
  838       -6.2612883526      -0.0000000008     0.999997    0.00000881
  839       -6.2612883534      -0.0000000008     0.999997    0.00000880
  840       -6.2612883542      -0.0000000008     0.999997    0.00000880
  841       -6.2612883550      -0.0000000008     0.999997    0.00000879
  842       -6.2612883558      -0.0000000008     0.999997    0.00000879
  843       -6.2612883567      -0.0000000008     0.999997    0.00000878
  844       -6.2612883575      -0.0000000008     0.999997    0.00000878
  845       -6.2612883583      -0.0000000008     0.999997    0.00000877
  846       -6.2612883591      -0.0000000008     0.999997    0.00000877
  847       -6.2612883599      -0.0000000008     0.999997    0.00000876
  848       -6.2612883608      -0.0000000008     0.999997    0.00000876
  849       -6.2612883616      -0.0000000008     0.999997    0.00000876
  850       -6.2612883624      -0.0000000008     0.999997    0.00000875
  851       -6.2612883632      -0.0000000008     0.999997    0.00000875
  852       -6.2612883640      -0.0000000008     0.999997    0.00000874
  853       -6.2612883648      -0.0000000008     0.999997    0.00000874
  854       -6.2612883656      -0.0000000008     0.999997    0.00000873
  855       -6.2612883665      -0.0000000008     0.999997    0.00000873
  856       -6.2612883673      -0.0000000008     0.999997    0.00000873
  857       -6.2612883681      -0.0000000008     0.999997    0.00000872
  858       -6.2612883689      -0.0000000008     0.999997    0.00000872
  859       -6.2612883697      -0.0000000008     0.999997    0.00000871
  860       -6.2612883705      -0.0000000008     0.999997    0.00000871
  861       -6.2612883713      -0.0000000008     0.999997    0.00000871
  862       -6.2612883721      -0.0000000008     0.999997    0.00000870
  863       -6.2612883729      -0.0000000008     0.999997    0.00000870
  864       -6.2612883737      -0.0000000008     0.999997    0.00000869
  865       -6.2612883745      -0.0000000008     0.999997    0.00000869
  866       -6.2612883753      -0.0000000008     0.999997    0.00000869
  867       -6.2612883761      -0.0000000008     0.999997    0.00000868
  868       -6.2612883769      -0.0000000008     0.999997    0.00000868
  869       -6.2612883777      -0.0000000008     0.999997    0.00000868
  870       -6.2612883786      -0.0000000008     0.999997    0.00000867
  871       -6.2612883794      -0.0000000008     0.999997    0.00000867
  872       -6.2612883802      -0.0000000008     0.999997    0.00000866
  873       -6.2612883810      -0.0000000008     0.999997    0.00000866
  874       -6.2612883818      -0.0000000008     0.999997    0.00000866
  875       -6.2612883826      -0.0000000008     0.999997    0.00000865
  876       -6.2612883834      -0.0000000008     0.999997    0.00000865
  877       -6.2612883841      -0.0000000008     0.999997    0.00000865
  878       -6.2612883849      -0.0000000008     0.999997    0.00000864
  879       -6.2612883857      -0.0000000008     0.999997    0.00000864
  880       -6.2612883865      -0.0000000008     0.999997    0.00000864
  881       -6.2612883873      -0.0000000008     0.999997    0.00000863
  882       -6.2612883881      -0.0000000008     0.999997    0.00000863
  883       -6.2612883889      -0.0000000008     0.999997    0.00000863
  884       -6.2612883897      -0.0000000008     0.999997    0.00000863
  885       -6.2612883905      -0.0000000008     0.999997    0.00000862
  886       -6.2612883913      -0.0000000008     0.999997    0.00000862
  887       -6.2612883921      -0.0000000008     0.999997    0.00000862
  888       -6.2612883929      -0.0000000008     0.999997    0.00000861
  889       -6.2612883937      -0.0000000008     0.999997    0.00000861
  890       -6.2612883945      -0.0000000008     0.999997    0.00000861
  891       -6.2612883953      -0.0000000008     0.999997    0.00000860
  892       -6.2612883961      -0.0000000008     0.999997    0.00000860
  893       -6.2612883969      -0.0000000008     0.999997    0.00000860
  894       -6.2612883976      -0.0000000008     0.999997    0.00000860
  895       -6.2612883984      -0.0000000008     0.999997    0.00000859
  896       -6.2612883992      -0.0000000008     0.999997    0.00000859
  897       -6.2612884000      -0.0000000008     0.999997    0.00000859
  898       -6.2612884008      -0.0000000008     0.999997    0.00000859
  899       -6.2612884016      -0.0000000008     0.999997    0.00000858
  900       -6.2612884024      -0.0000000008     0.999997    0.00000858
  901       -6.2612884032      -0.0000000008     0.999997    0.00000858
  902       -6.2612884039      -0.0000000008     0.999997    0.00000858
  903       -6.2612884047      -0.0000000008     0.999997    0.00000857
  904       -6.2612884055      -0.0000000008     0.999997    0.00000857
  905       -6.2612884063      -0.0000000008     0.999997    0.00000857
  906       -6.2612884071      -0.0000000008     0.999997    0.00000857
  907       -6.2612884079      -0.0000000008     0.999997    0.00000856
  908       -6.2612884087      -0.0000000008     0.999997    0.00000856
  909       -6.2612884094      -0.0000000008     0.999997    0.00000856
  910       -6.2612884102      -0.0000000008     0.999997    0.00000856
  911       -6.2612884110      -0.0000000008     0.999997    0.00000856
  912       -6.2612884118      -0.0000000008     0.999997    0.00000855
  913       -6.2612884126      -0.0000000008     0.999997    0.00000855
  914       -6.2612884134      -0.0000000008     0.999997    0.00000855
  915       -6.2612884141      -0.0000000008     0.999997    0.00000855
  916       -6.2612884149      -0.0000000008     0.999997    0.00000855
  917       -6.2612884157      -0.0000000008     0.999997    0.00000854
  918       -6.2612884165      -0.0000000008     0.999997    0.00000854
  919       -6.2612884173      -0.0000000008     0.999997    0.00000854
  920       -6.2612884181      -0.0000000008     0.999997    0.00000854
  921       -6.2612884188      -0.0000000008     0.999997    0.00000854
  922       -6.2612884196      -0.0000000008     0.999997    0.00000853
  923       -6.2612884204      -0.0000000008     0.999997    0.00000853
  924       -6.2612884212      -0.0000000008     0.999997    0.00000853
  925       -6.2612884220      -0.0000000008     0.999997    0.00000853
  926       -6.2612884227      -0.0000000008     0.999997    0.00000853
  927       -6.2612884235      -0.0000000008     0.999997    0.00000853
  928       -6.2612884243      -0.0000000008     0.999997    0.00000853
  929       -6.2612884251      -0.0000000008     0.999997    0.00000852
  930       -6.2612884259      -0.0000000008     0.999997    0.00000852
  931       -6.2612884266      -0.0000000008     0.999997    0.00000852
  932       -6.2612884274      -0.0000000008     0.999997    0.00000852
  933       -6.2612884282      -0.0000000008     0.999997    0.00000852
  934       -6.2612884290      -0.0000000008     0.999997    0.00000852
  935       -6.2612884298      -0.0000000008     0.999997    0.00000852
  936       -6.2612884305      -0.0000000008     0.999997    0.00000851
  937       -6.2612884313      -0.0000000008     0.999997    0.00000851
  938       -6.2612884321      -0.0000000008     0.999997    0.00000851
  939       -6.2612884329      -0.0000000008     0.999997    0.00000851
  940       -6.2612884336      -0.0000000008     0.999997    0.00000851
  941       -6.2612884344      -0.0000000008     0.999997    0.00000851
  942       -6.2612884352      -0.0000000008     0.999997    0.00000851
  943       -6.2612884360      -0.0000000008     0.999997    0.00000851
  944       -6.2612884368      -0.0000000008     0.999997    0.00000851
  945       -6.2612884375      -0.0000000008     0.999997    0.00000851
  946       -6.2612884383      -0.0000000008     0.999997    0.00000850
  947       -6.2612884391      -0.0000000008     0.999997    0.00000850
  948       -6.2612884399      -0.0000000008     0.999997    0.00000850
  949       -6.2612884406      -0.0000000008     0.999997    0.00000850
  950       -6.2612884414      -0.0000000008     0.999997    0.00000850
  951       -6.2612884422      -0.0000000008     0.999997    0.00000850
  952       -6.2612884430      -0.0000000008     0.999997    0.00000850
  953       -6.2612884437      -0.0000000008     0.999997    0.00000850
  954       -6.2612884445      -0.0000000008     0.999997    0.00000850
  955       -6.2612884453      -0.0000000008     0.999997    0.00000850
  956       -6.2612884461      -0.0000000008     0.999997    0.00000850
  957       -6.2612884469      -0.0000000008     0.999997    0.00000850
  958       -6.2612884476      -0.0000000008     0.999997    0.00000850
  959       -6.2612884484      -0.0000000008     0.999997    0.00000850
  960       -6.2612884492      -0.0000000008     0.999997    0.00000850
  961       -6.2612884500      -0.0000000008     0.999997    0.00000850
  962       -6.2612884507      -0.0000000008     0.999997    0.00000850
  963       -6.2612884515      -0.0000000008     0.999997    0.00000850
  964       -6.2612884523      -0.0000000008     0.999997    0.00000850
  965       -6.2612884531      -0.0000000008     0.999997    0.00000850
  966       -6.2612884538      -0.0000000008     0.999997    0.00000849
  967       -6.2612884546      -0.0000000008     0.999997    0.00000849
  968       -6.2612884554      -0.0000000008     0.999997    0.00000849
  969       -6.2612884562      -0.0000000008     0.999997    0.00000849
  970       -6.2612884570      -0.0000000008     0.999997    0.00000849
  971       -6.2612884577      -0.0000000008     0.999997    0.00000849
  972       -6.2612884585      -0.0000000008     0.999997    0.00000849
  973       -6.2612884593      -0.0000000008     0.999997    0.00000849
  974       -6.2612884601      -0.0000000008     0.999997    0.00000850
  975       -6.2612884608      -0.0000000008     0.999997    0.00000850
  976       -6.2612884616      -0.0000000008     0.999997    0.00000850
  977       -6.2612884624      -0.0000000008     0.999997    0.00000850
  978       -6.2612884632      -0.0000000008     0.999997    0.00000850
  979       -6.2612884640      -0.0000000008     0.999997    0.00000850
  980       -6.2612884647      -0.0000000008     0.999997    0.00000850
  981       -6.2612884655      -0.0000000008     0.999997    0.00000850
  982       -6.2612884663      -0.0000000008     0.999997    0.00000850
  983       -6.2612884671      -0.0000000008     0.999997    0.00000850
  984       -6.2612884679      -0.0000000008     0.999997    0.00000850
  985       -6.2612884686      -0.0000000008     0.999997    0.00000850
  986       -6.2612884694      -0.0000000008     0.999997    0.00000850
  987       -6.2612884702      -0.0000000008     0.999997    0.00000850
  988       -6.2612884710      -0.0000000008     0.999997    0.00000850
  989       -6.2612884718      -0.0000000008     0.999997    0.00000850
  990       -6.2612884725      -0.0000000008     0.999997    0.00000850
  991       -6.2612884733      -0.0000000008     0.999997    0.00000850
  992       -6.2612884741      -0.0000000008     0.999997    0.00000850
  993       -6.2612884749      -0.0000000008     0.999997    0.00000850
  994       -6.2612884757      -0.0000000008     0.999997    0.00000851
  995       -6.2612884764      -0.0000000008     0.999997    0.00000851
  996       -6.2612884772      -0.0000000008     0.999997    0.00000851
  997       -6.2612884780      -0.0000000008     0.999997    0.00000851
  998       -6.2612884788      -0.0000000008     0.999997    0.00000851
  999       -6.2612884796      -0.0000000008     0.999997    0.00000851
 1000       -6.2612884804      -0.0000000008     0.999997    0.00000851

Total Energy:                       -6.2612884804 H         -170.3783 eV
Extrapolated to 0:                  -6.2358455748 H         -169.6860 eV

----------------------------------------------------------------------------------
 Solving CP-REKS equation for  1 state vector...
----------------------------------------------------------------------------------
  CG solver: Constructing Y initial guess
  CG solver: Iteration    1    eps =    0.073420831799
  CG solver: Iteration    2    eps =    0.026736739805
  CG solver: Iteration    3    eps =    0.062618402219
  CG solver: Iteration    4    eps =    1.162617024602
  CG solver: Iteration    5    eps = 1322.400630509377
  CG solver: Iteration    6    eps =    4.533592333291
  CG solver: Iteration    7    eps =    0.675515758293
  CG solver: Iteration    8    eps =    0.079870605647
  CG solver: Iteration    9    eps =    0.013330562546
  CG solver: Iteration   10    eps =    0.000323238270
  CG solver: Iteration   11    eps =    0.000034528356
  CG solver: Iteration   12    eps =    0.000003475024
  CG solver: Iteration   13    eps =    0.000000055956
  CG solver: Iteration   14    eps =    0.000000001702
  Convergence reached in CG solver after   14 iterations
  CG solver: Calculating converged R, Z, Q2 matrix
----------------------------------------------------------------------------------

----------------------------------------------------------------------------------
 Solving CP-REKS equation for SI between  1 and  2 state vectors...
----------------------------------------------------------------------------------
  CG solver: Constructing Y initial guess
  CG solver: Iteration    1    eps =    0.003034010554
  CG solver: Iteration    2    eps =    0.002306906859
  CG solver: Iteration    3    eps =    0.023612551324
  CG solver: Iteration    4    eps =   21.388080175489
  CG solver: Iteration    5    eps =    0.341032811107
  CG solver: Iteration    6    eps =    0.048633711137
  CG solver: Iteration    7    eps =    0.007696784219
  CG solver: Iteration    8    eps =    0.000263941360
  CG solver: Iteration    9    eps =    0.000005592997
  CG solver: Iteration   10    eps =    0.000000050747
  CG solver: Iteration   11    eps =    0.000000000649
  Convergence reached in CG solver after   11 iterations
  CG solver: Calculating converged R, Z, Q2 matrix
----------------------------------------------------------------------------------

--------------------------------------------------
 Gradient Information
--------------------------------------------------
           1 st state (SSR)
     0.00000000     0.00000000     0.00000000
     0.00000000     0.00000000     0.00000000
     0.00000000     0.00000000     0.00000000
     0.00000000     0.00000000     0.00000000
     0.00000000     0.00000000     0.00000000
     0.00000000     0.00000000     0.00000000

           2 st state (SSR)
     0.00000000     0.00000000     0.00000000
     0.00000000     0.00000000     0.00000000
     0.00000000     0.00000000     0.00000000
     0.00000000     0.00000000     0.00000000
     0.00000000     0.00000000     0.00000000
     0.00000000     0.00000000     0.00000000
--------------------------------------------------
 Coupling Information
--------------------------------------------------
 between  1 and  2 states
--------------------------------------------------
 g vector - difference gradient
     1.18078657     1.29674731   -36.72213308
    -3.26481259    -3.68927238    38.61078787
    -1.75917505   -23.97245479    -0.80789217
    -0.10744812    26.25311706    -1.16680946
     1.44285466   -23.19089185    -3.35631137
     2.50779452    23.30275465     3.44235821

 h vector - derivative coupling
    -0.20550783    -0.26091581     9.68830873
     0.70878256     0.93382949   -10.26564180
     0.47451797     6.27760020     0.23600142
     0.12481237    -6.92941948     0.30787375
    -0.39367806     6.11309502     0.92753379
    -0.70892701    -6.13418942    -0.89407590

 G vector - GDV
     0.00000000     0.00000000     0.00000000
     0.00000000     0.00000000     0.00000000
     0.00000000     0.00000000     0.00000000
     0.00000000     0.00000000     0.00000000
     0.00000000     0.00000000     0.00000000
     0.00000000     0.00000000     0.00000000

 H vector - DCV - non-adiabatic coupling
     0.00000000     0.00000000     0.00000000
     0.00000000     0.00000000     0.00000000
     0.00000000     0.00000000     0.00000000
     0.00000000     0.00000000     0.00000000
     0.00000000     0.00000000     0.00000000
     0.00000000     0.00000000     0.00000000
--------------------------------------------------

WARNING!
-> SCC is NOT converged, maximal SCC iterations exceeded

--------------------------------------------------------------------------------
DFTB+ running times                          cpu [s]             wall clock [s]
--------------------------------------------------------------------------------
SCC                                    +     0.40  ( 96.4%)      0.40  ( 96.0%)
      Sparse to dense                        0.02  (  4.8%)      0.02  (  5.2%)
      Dense to sparse                        0.07  ( 16.2%)      0.07  ( 15.5%)
      Range separated Hamiltonian            0.03  (  6.6%)      0.03  (  7.1%)
  Density matrix creation                    0.05  ( 12.4%)      0.05  ( 12.6%)
  Force calculation                          0.01  (  3.3%)      0.01  (  3.3%)
--------------------------------------------------------------------------------
Missing                                +     0.02  (  3.6%)      0.02  (  4.0%)
Total                                  =     0.42  (100.0%)      0.42  (100.0%)
--------------------------------------------------------------------------------
