     6
  Step:     0            Position(A)                                  Velocity(au)
C        -0.02929949     0.01236559     0.04636062     0.00000100     0.00011838    -0.00018750
N        -0.04810408    -0.06967748     1.27654597    -0.00013477    -0.00001661     0.00022043
H         0.91704870     0.00890621    -0.51782337    -0.00020713    -0.00052857    -0.00011883
H         0.81953581    -0.00192101     1.75808475     0.00081723     0.00003183     0.00037619
H        -0.92863697     0.02483132     1.89887435     0.00107579    -0.00029050    -0.00140805
H        -1.00327970     0.11932005    -0.53886196     0.00017511    -0.00039256     0.00032175
     6
  Step:     1            Position(A)                                  Velocity(au)
C        -0.02933484     0.01302847     0.04484763    -0.00001384     0.00012385    -0.00036370
N        -0.04889278    -0.06981324     1.27815516    -0.00015148    -0.00003309     0.00036606
H         0.91622029     0.00612695    -0.51843539    -0.00009488    -0.00048752    -0.00010578
H         0.82455586    -0.00160697     1.76049413     0.00100399     0.00008242     0.00049748
H        -0.92246538     0.02334563     1.89080075     0.00116524    -0.00025041    -0.00153162
H        -1.00226104     0.11725866    -0.53691885     0.00019572    -0.00036041     0.00038687
     6
  Step:     2            Position(A)                                  Velocity(au)
C        -0.02945093     0.01372062     0.04238134    -0.00002837     0.00012874    -0.00053433
N        -0.04976143    -0.07003954     1.28055106    -0.00016341    -0.00004964     0.00050643
H         0.91601067     0.00357221    -0.51898069     0.00001780    -0.00044535    -0.00009419
H         0.83052046    -0.00101924     1.76352772     0.00115888     0.00013190     0.00060277
H        -0.91588809     0.02209163     1.88211684     0.00121936    -0.00020479    -0.00162621
H        -1.00113833     0.11537684    -0.53462919     0.00021282    -0.00032601     0.00044710
     6
  Step:     3            Position(A)                                  Velocity(au)
C        -0.02964543     0.01443817     0.03899696    -0.00004224     0.00013262    -0.00069634
N        -0.05068202    -0.07035682     1.28370040    -0.00016968    -0.00006614     0.00063872
H         0.91641519     0.00125058    -0.51946672     0.00012764    -0.00040078    -0.00008383
H         0.83724513    -0.00016274     1.76709423     0.00127664     0.00018025     0.00068992
H        -0.90911385     0.02110323     1.87299435     0.00123090    -0.00015232    -0.00168457
H        -0.99993070     0.11368897    -0.53202322     0.00022615    -0.00028837     0.00050023
     6
  Step:     4            Position(A)                                  Velocity(au)
C        -0.02991409     0.01517495     0.03474536    -0.00005503     0.00013507    -0.00084636
N        -0.05162212    -0.07076485     1.28755515    -0.00016957    -0.00008237     0.00075981
H         0.91741039    -0.00082265    -0.51990001     0.00023062    -0.00035291    -0.00007465
H         0.84451987     0.00095733     1.77109328     0.00135282     0.00022705     0.00075738
H        -0.90239021     0.02042136     1.86364417     0.00119340    -0.00009218    -0.00169966
H        -0.99865840     0.11221464    -0.52914378     0.00023548    -0.00024684     0.00054360
     6
  Step:     5            Position(A)                                  Velocity(au)
C        -0.03025027     0.01592267     0.02969496    -0.00006626     0.00013577    -0.00098078
N        -0.05254571    -0.07126209     1.29205115    -0.00016259    -0.00009796     0.00086648
H         0.91894978    -0.00262812    -0.52028721     0.00032218    -0.00030158    -0.00006680
H         0.85211343     0.00233267     1.77541829     0.00138424     0.00027122     0.00080426
H        -0.89599773     0.02009008     1.85431410     0.00110214    -0.00002461    -0.00166566
H        -0.99734268     0.11097604    -0.52604872     0.00024049    -0.00020149     0.00057432
     6
  Step:     6            Position(A)                                  Velocity(au)
C        -0.03064454     0.01667166     0.02393303    -0.00007540     0.00013457    -0.00109602
N        -0.05341453    -0.07184481     1.29710738    -0.00014859    -0.00011243     0.00095565
H         0.92096213    -0.00414731    -0.52063641     0.00039812    -0.00024766    -0.00006062
H         0.85977996     0.00394730     1.77995964     0.00136963     0.00031088     0.00083042
H        -0.89024004     0.02015004     1.84528162     0.00095527     0.00004885    -0.00157924
H        -0.99600720     0.10999340    -0.52281237     0.00024044    -0.00015333     0.00058957
     6
  Step:     7            Position(A)                                  Velocity(au)
C        -0.03108466     0.01741189     0.01756615    -0.00008202     0.00013155    -0.00118889
N        -0.05419005    -0.07250623     1.30262660    -0.00012791    -0.00012518     0.00102478
H         0.92335541    -0.00536874    -0.52095804     0.00045571    -0.00019298    -0.00005657
H         0.86726999     0.00577294     1.78460792     0.00131043     0.00034370     0.00083653
H        -0.88542656     0.02063067     1.83683796     0.00075490     0.00012547    -0.00144108
H        -0.99468196     0.10927928    -0.51952442     0.00023381    -0.00010425     0.00058724
     6
  Step:     8            Position(A)                                  Velocity(au)
C        -0.03155615     0.01813385     0.01071867    -0.00008585     0.00012691    -0.00125722
N        -0.05483620    -0.07323615     1.30849770    -0.00010140    -0.00013571     0.00107238
H         0.92602731    -0.00629229    -0.52126518     0.00049457    -0.00013974    -0.00005505
H         0.87434525     0.00776746     1.78925761     0.00121119     0.00036767     0.00082421
H        -0.88184936     0.02154460     1.82926414     0.00050790     0.00020209    -0.00125691
H        -0.99340838     0.10883467    -0.51628524     0.00021855    -0.00005642     0.00056657
     6
  Step:     9            Position(A)                                  Velocity(au)
C        -0.03204340     0.01882910     0.00352679    -0.00008692     0.00012096    -0.00130080
N        -0.05532236    -0.07402170     1.31460192    -0.00007042    -0.00014379     0.00109879
H         0.92887824    -0.00692924    -0.52157281     0.00051654    -0.00008974    -0.00005630
H         0.88079538     0.00987877     1.79381188     0.00107944     0.00038202     0.00079626
H        -0.87975489     0.02288739     1.82280202     0.00022569     0.00027609    -0.00103729
H        -0.99224145     0.10864929    -0.51319755     0.00019273    -0.00001155     0.00052849
     6
  Step:    10            Position(A)                                  Velocity(au)
C        -0.03253110     0.01949063    -0.00387276    -0.00008546     0.00011406    -0.00132194
N        -0.05562616    -0.07484904     1.32082315    -0.00003666    -0.00014953     0.00110650
H         0.93182150    -0.00729888    -0.52189665     0.00052497    -0.00004398    -0.00006029
H         0.88645362     0.01205268     1.79818947     0.00092472     0.00038744     0.00075669
H        -0.87931774     0.02464153     1.81762863    -0.00007721     0.00034590    -0.00079591
H        -0.99124652     0.10870509    -0.51035705     0.00015535     0.00002943     0.00047545
     6
  Step:    11            Position(A)                                  Velocity(au)
C        -0.03300558     0.02011329    -0.01135678    -0.00008193     0.00010664    -0.00132519
N        -0.05573508    -0.07570525     1.32705990    -0.00000180    -0.00015337     0.00109984
H         0.93478879    -0.00742441    -0.52225158     0.00052372    -0.00000271    -0.00006680
H         0.89120673     0.01424092     1.80233143     0.00075697     0.00038580     0.00071027
H        -0.88062421     0.02678184     1.81384091    -0.00038578     0.00041107    -0.00054703
H        -0.99049240     0.10898061    -0.50784455     0.00010652     0.00006642     0.00041074
     6
  Step:    12            Position(A)                                  Velocity(au)
C        -0.03345577     0.02069411    -0.01882819    -0.00007686     0.00009908    -0.00131626
N        -0.05564646    -0.07657990     1.33323544     0.00003269    -0.00015590     0.00108401
H         0.93773191    -0.00732943    -0.52265047     0.00051653     0.00003447    -0.00007561
H         0.89499637     0.01640663     1.80620528     0.00058482     0.00037945     0.00066168
H        -0.88367150     0.02928063     1.81145507    -0.00068681     0.00047192    -0.00030295
H        -0.99004436     0.10945464    -0.50572160     0.00004714     0.00009989     0.00033768
     6
  Step:    13            Position(A)                                  Velocity(au)
C        -0.03387357     0.02123227    -0.02622204    -0.00007068     0.00009167    -0.00130032
N        -0.05536593    -0.07746587     1.33930223     0.00006569    -0.00015765     0.00106363
H         0.94062223    -0.00703511    -0.52310549     0.00050642     0.00006831    -0.00008668
H         0.89781141     0.01852626     1.80980411     0.00041454     0.00037054     0.00061463
H        -0.88838077     0.03211148     1.81041956    -0.00096977     0.00052902    -0.00007266
H        -0.98996006     0.11010877    -0.50403090    -0.00002164     0.00013062     0.00025885
     6
  Step:    14            Position(A)                                  Velocity(au)
C        -0.03425344     0.02172854    -0.03350209    -0.00009976     0.00013225    -0.00200420
N        -0.05490521    -0.07835896     1.34523828     0.00015078    -0.00024878     0.00163014
H         0.94344674    -0.00655856    -0.52362864     0.00077506     0.00015594    -0.00015642
H         0.89967440     0.02058809     1.81314133     0.00039132     0.00056428     0.00089442
H        -0.89461516     0.03525049     1.81063512    -0.00191864     0.00091164     0.00021579
H        -0.99028858     0.11092867    -0.50280053    -0.00015418     0.00024934     0.00027532
     6
  Step:    15            Position(A)                                  Velocity(au)
C        -0.03477824     0.02244443    -0.04434617    -0.00008508     0.00012002    -0.00181883
N        -0.05398931    -0.07972485     1.35407466     0.00016976    -0.00023273     0.00148576
H         0.94794984    -0.00573363    -0.52488861     0.00081082     0.00013546    -0.00028345
H         0.90147038     0.02367544     1.81803273     0.00024645     0.00052547     0.00083262
H        -0.90600332     0.04034672     1.81247306    -0.00206730     0.00088341     0.00041238
H        -0.99167302     0.11237056    -0.50184499    -0.00033506     0.00025953     0.00006497
     6
  Step:    16            Position(A)                                  Velocity(au)
C        -0.03521919     0.02309090    -0.05414723    -0.00007036     0.00010784    -0.00163702
N        -0.05297832    -0.08100059     1.36210287     0.00018401    -0.00021692     0.00134551
H         0.95265023    -0.00502102    -0.52684604     0.00084276     0.00011622    -0.00040135
H         0.90247181     0.02655257     1.82259228     0.00011213     0.00049007     0.00077726
H        -0.91808064     0.04527786     1.81531601    -0.00215887     0.00085227     0.00056954
H        -0.99409183     0.11387458    -0.50206309    -0.00051467     0.00027074    -0.00013632
     6
  Step:    17            Position(A)                                  Velocity(au)
C        -0.03557707     0.02366881    -0.06293213    -0.00003147     0.00005392    -0.00082142
N        -0.05190010    -0.08218761     1.36935093     0.00010869    -0.00011323     0.00068079
H         0.95751813    -0.00441409    -0.52944538     0.00048817     0.00005516    -0.00028612
H         0.90274346     0.02923946     1.82685736    -0.00000563     0.00025767     0.00040965
H        -0.93051406     0.05002302     1.81893936    -0.00123240     0.00045936     0.00038672
H        -0.99751639     0.11544447    -0.50339267    -0.00038545     0.00015870    -0.00018265
     6
  Step:    18            Position(A)                                  Velocity(au)
C        -0.03572841     0.02395280    -0.06749105    -0.00002253     0.00004722    -0.00079971
N        -0.05124174    -0.08282536     1.37312905     0.00012375    -0.00011341     0.00066309
H         0.96017970    -0.00401212    -0.53107506     0.00045735     0.00008713    -0.00029315
H         0.90231802     0.03066193     1.82909499    -0.00013972     0.00024862     0.00038836
H        -0.93768615     0.05271497     1.82141591    -0.00130081     0.00049514     0.00048361
H        -0.99992559     0.11640644    -0.50465507    -0.00046794     0.00018242    -0.00026396
     6
  Step:    19            Position(A)                                  Velocity(au)
C        -0.03583033     0.02419964    -0.07192247    -0.00001410     0.00004099    -0.00078159
N        -0.05050896    -0.08346255     1.37680536     0.00013602    -0.00011382     0.00064909
H         0.96265965    -0.00343462    -0.53274092     0.00042684     0.00011849    -0.00030112
H         0.90117274     0.03203445     1.83122335    -0.00026251     0.00024172     0.00037374
H        -0.94513780     0.05558940     1.82437609    -0.00134107     0.00052786     0.00056278
H        -1.00277696     0.11749529    -0.50636008    -0.00054540     0.00020519    -0.00034194
     6
  Step:    20            Position(A)                                  Velocity(au)
C        -0.03588643     0.02441202    -0.07624708    -0.00000630     0.00003506    -0.00076474
N        -0.04971788    -0.08410049     1.38040073     0.00014510    -0.00011414     0.00063674
H         0.96496149    -0.00268472    -0.53444848     0.00039564     0.00014931    -0.00030931
H         0.89937722     0.03336990     1.83328189    -0.00037239     0.00023647     0.00036524
H        -0.95270992     0.05862846     1.82772059    -0.00134966     0.00055613     0.00062364
H        -1.00603563     0.11870515    -0.50848573    -0.00061480     0.00022646    -0.00041530
     6
  Step:    21            Position(A)                                  Velocity(au)
C        -0.03590081     0.02459168    -0.08047270     0.00000073     0.00002935    -0.00074784
N        -0.04888666    -0.08473875     1.38392451     0.00015071    -0.00011420     0.00062479
H         0.96708316    -0.00176527    -0.53619919     0.00036343     0.00017955    -0.00031726
H         0.89700921     0.03467830     1.83530691    -0.00046746     0.00023265     0.00036279
H        -0.96022781     0.06180729     1.83134880    -0.00132538     0.00057913     0.00066620
H        -1.00965086     0.12002723    -0.51100341    -0.00067355     0.00024579    -0.00048278
     6
  Step:    22            Position(A)                                  Velocity(au)
C        -0.03587831     0.02473989    -0.08459992     0.00000684     0.00002383    -0.00073026
N        -0.04803457    -0.08537597     1.38737921     0.00015277    -0.00011389     0.00061256
H         0.96902079    -0.00067928    -0.53799205     0.00033033     0.00020916    -0.00032474
H         0.89415603     0.03596848     1.83733395    -0.00054599     0.00023026     0.00036651
H        -0.96751341     0.06509692     1.83516157    -0.00126902     0.00059650     0.00069111
H        -1.01355865     0.12145041    -0.51387808    -0.00071963     0.00026285    -0.00054335
     6
  Step:    23            Position(A)                                  Velocity(au)
C        -0.03582449     0.02485773    -0.08862570     0.00001189     0.00001849    -0.00071177
N        -0.04718111    -0.08601033     1.39076339     0.00015133    -0.00011322     0.00059967
H         0.97077107     0.00056988    -0.53982478     0.00029665     0.00023809    -0.00033166
H         0.89091356     0.03724904     1.83939883    -0.00060664     0.00022934     0.00037657
H        -0.97439578     0.06846690     1.83906465    -0.00118295     0.00060827     0.00069961
H        -1.01768516     0.12296181    -0.51706962    -0.00075172     0.00027743    -0.00059627
     6
  Step:    24            Position(A)                                  Velocity(au)
C        -0.03574552     0.02494626    -0.09254569     0.00001581     0.00001333    -0.00069237
N        -0.04634519    -0.08663995     1.39407357     0.00014660    -0.00011221     0.00058598
H         0.97233248     0.00197861    -0.54169458     0.00026288     0.00026632    -0.00033803
H         0.88738378     0.03852875     1.84153773    -0.00064867     0.00022999     0.00039303
H        -0.98071924     0.07188735     1.84297166    -0.00107062     0.00061478     0.00069341
H        -1.02195047     0.12454747    -0.52053448    -0.00076915     0.00028941    -0.00064115
     6
  Step:    25            Position(A)                                  Velocity(au)
C        -0.03564795     0.02500658    -0.09635549     0.00001854     0.00000838    -0.00067222
N        -0.04554446    -0.08726311     1.39730546     0.00013885    -0.00011092     0.00057149
H         0.97370590     0.00354320    -0.54359860     0.00022948     0.00029389    -0.00034389
H         0.88367159     0.03981668     1.84378673    -0.00067192     0.00023226     0.00041585
H        -0.98634849     0.07533048     1.84680606    -0.00093615     0.00061657     0.00067447
H        -1.02627220     0.12619288    -0.52422757    -0.00077185     0.00029878    -0.00067792
     6
  Step:    26            Position(A)                                  Velocity(au)
C        -0.03553849     0.02503981    -0.10005147     0.00002007     0.00000363    -0.00065154
N        -0.04479482    -0.08787840     1.40045468     0.00012846    -0.00010940     0.00055627
H         0.97489482     0.00526011    -0.54553431     0.00019695     0.00032086    -0.00034934
H         0.87988129     0.04112204     1.84618102    -0.00067686     0.00023617     0.00044482
H        -0.99117199     0.07877180     1.85050262    -0.00078402     0.00061435     0.00064495
H        -1.03056871     0.12788353    -0.52810392    -0.00076024     0.00030558    -0.00070678
     6
  Step:    27            Position(A)                                  Velocity(au)
C        -0.03542386     0.02504716    -0.10363118     0.00002042    -0.00000090    -0.00063059
N        -0.04411001    -0.08848476     1.40351728     0.00011582    -0.00010774     0.00054044
H         0.97590521     0.00712616    -0.54749965     0.00016570     0.00034732    -0.00035450
H         0.87611322     0.04245396     1.84875393    -0.00066449     0.00024169     0.00047953
H        -0.99510354     0.08219088     1.85400811    -0.00061881     0.00060893     0.00060701
H        -1.03476174     0.12960523    -0.53212010    -0.00073517     0.00030991    -0.00072815
     6
  Step:    28            Position(A)                                  Velocity(au)
C        -0.03531051     0.02502980    -0.10709342     0.00001964    -0.00000521    -0.00060958
N        -0.04350139    -0.08908154     1.40648998     0.00010139    -0.00010600     0.00052414
H         0.97674526     0.00913870    -0.54949311     0.00013610     0.00037340    -0.00035947
H         0.87246069     0.04382106     1.85153603    -0.00063636     0.00024870     0.00051940
H        -0.99808239     0.08557188     1.85728131    -0.00044495     0.00060114     0.00056278
H        -1.03877857     0.13134444    -0.53623540    -0.00069776     0.00031193    -0.00074261
     6
  Step:    29            Position(A)                                  Velocity(au)
C        -0.03520457     0.02498892    -0.11043818     0.00001781    -0.00000933    -0.00058871
N        -0.04297779    -0.08966844     1.40937023     0.00008561    -0.00010425     0.00050749
H         0.97742499     0.01129584    -0.55151373     0.00010842     0.00039925    -0.00036434
H         0.86900717     0.04523108     1.85455398    -0.00059441     0.00025699     0.00056368
H        -1.00007214     0.08890369     1.86029253    -0.00026658     0.00059185     0.00051423
H        -1.04255346     0.13308843    -0.54041268    -0.00064934     0.00031176    -0.00075085
     6
  Step:    30            Position(A)                                  Velocity(au)
C        -0.03511167     0.02492567    -0.11366645     0.00001502    -0.00001324    -0.00056812
N        -0.04254550    -0.09024552     1.41215626     0.00006894    -0.00010254     0.00049063
H         0.97795583     0.01359646    -0.55356101     0.00008289     0.00042503    -0.00036918
H         0.86582398     0.04669036     1.85782959    -0.00054097     0.00026627     0.00061140
H        -1.00105882     0.09217997     1.86302276    -0.00008751     0.00058187     0.00046316
H        -1.04602862     0.13482535    -0.54461886    -0.00059136     0.00030958    -0.00075362
     6
  Step:    31            Position(A)                                  Velocity(au)
C        -0.03503691     0.02484111    -0.11677999     0.00001136    -0.00001697    -0.00054794
N        -0.04220824    -0.09081309     1.41484704     0.00005181    -0.00010091     0.00047367
H         0.97835023     0.01604037    -0.55563476     0.00005964     0.00045090    -0.00037403
H         0.86296849     0.04820338     1.86137888    -0.00047861     0.00027617     0.00066148
H        -1.00104898     0.09539897     1.86546264     0.00008882     0.00057203     0.00041120
H        -1.04915459     0.13654417    -0.54882516    -0.00052526     0.00030551    -0.00075167
     6
  Step:    32            Position(A)                                  Velocity(au)
C        -0.03498484     0.02473625    -0.11978110     0.00000695    -0.00002054    -0.00052819
N        -0.04196728    -0.09137167     1.41744212     0.00003467    -0.00009940     0.00045667
H         0.97862133     0.01862829    -0.55773500     0.00003877     0.00047703    -0.00037892
H         0.86048291     0.04977227     1.86521138    -0.00041009     0.00028622     0.00071271
H        -1.00006768     0.09856346     1.86761151     0.00025926     0.00056309     0.00035981
H        -1.05189026     0.13823464    -0.55300709    -0.00045253     0.00029966    -0.00074575
     6
  Step:    33            Position(A)                                  Velocity(au)
C        -0.03495940     0.02461199    -0.12267229     0.00000187    -0.00002395    -0.00050890
N        -0.04182145    -0.09192193     1.41994152     0.00001794    -0.00009801     0.00043972
H         0.97878272     0.02136192    -0.55986182     0.00002034     0.00050358    -0.00038382
H         0.85839364     0.05139639     1.86932959    -0.00033822     0.00029590     0.00076379
H        -0.99815681     0.10168060     1.86947653     0.00042094     0.00055584     0.00031031
H        -1.05420280     0.13988708    -0.55714445    -0.00037459     0.00029212    -0.00073660
     6
  Step:    34            Position(A)                                  Velocity(au)
C        -0.03496397     0.02446916    -0.12545610    -0.00000376    -0.00002723    -0.00049003
N        -0.04176726    -0.09246465     1.42234557     0.00000201    -0.00009677     0.00042281
H         0.97884818     0.02424395    -0.56201517     0.00000439     0.00053074    -0.00038871
H         0.85671124     0.05307197     1.87372876    -0.00026579     0.00030459     0.00081342
H        -0.99537357     0.10476183     1.87107193     0.00057124     0.00055104     0.00026390
H        -1.05606751     0.14149219    -0.56122121    -0.00029288     0.00028292    -0.00072494
     6
  Step:    35            Position(A)                                  Velocity(au)
C        -0.03500137     0.02430846    -0.12813469    -0.00000986    -0.00003039    -0.00047147
N        -0.04179905    -0.09300068     1.42465463    -0.00001273    -0.00009569     0.00040595
H         0.97883163     0.02727813    -0.56419484    -0.00000907     0.00055871    -0.00039354
H         0.85543090     0.05479170     1.87839686    -0.00019544     0.00031164     0.00086031
H        -0.99178922     0.10782302     1.87241825     0.00070770     0.00054948     0.00022165
H        -1.05746751     0.14304080    -0.56522540    -0.00020874     0.00027205    -0.00071149
     6
  Step:    36            Position(A)                                  Velocity(au)
C        -0.03507387     0.02413050    -0.13070958    -0.00001634    -0.00003346    -0.00045310
N        -0.04190911    -0.09353087     1.42686889    -0.00002593    -0.00009476     0.00038906
H         0.97874710     0.03046945    -0.56640031    -0.00001999     0.00058772    -0.00039826
H         0.85453347     0.05654444     1.88331497    -0.00012964     0.00031630     0.00090327
H        -0.98748791     0.11088454     1.87354175     0.00082810     0.00055202     0.00018454
H        -1.05839348     0.14452353    -0.56914916    -0.00012353     0.00025942    -0.00069699
     6
  Step:    37            Position(A)                                  Velocity(au)
C        -0.03518331     0.02393578    -0.13318146    -0.00002311    -0.00003645    -0.00043471
N        -0.04208782    -0.09405611     1.42898817    -0.00003726    -0.00009398     0.00037207
H         0.97860898     0.03382445    -0.56863084    -0.00002826     0.00061811    -0.00040283
H         0.85398692     0.05831479     1.88845790    -0.00007052     0.00031775     0.00094125
H        -0.98256547     0.11397164     1.87447369     0.00093044     0.00055957     0.00015339
H        -1.05884344     0.14593030    -0.57298881    -0.00003854     0.00024483    -0.00068223
     6
  Step:    38            Position(A)                                  Velocity(au)
C        -0.03533118     0.02372470    -0.13554984    -0.00003014    -0.00003937    -0.00041608
N        -0.04232393    -0.09457727     1.43101170    -0.00004644    -0.00009335     0.00035485
H         0.97843247     0.03735171    -0.57088552    -0.00003362     0.00065033    -0.00040726
H         0.85374832     0.06008245     1.89379525    -0.00001984     0.00031501     0.00097344
H        -0.97712801     0.11711502     1.87524962     0.00101299     0.00057323     0.00012889
H        -1.05882258     0.14724956    -0.57674533     0.00004493     0.00022790    -0.00066812
     6
  Step:    39            Position(A)                                  Velocity(au)
C        -0.03551878     0.02349754    -0.13781265    -0.00003742    -0.00004226    -0.00039680
N        -0.04260469    -0.09509520     1.43293780    -0.00005321    -0.00009287     0.00033714
H         0.97823475     0.04106297    -0.57316382    -0.00003548     0.00068513    -0.00041172
H         0.85376604     0.06182102     1.89929288     0.00002103     0.00030673     0.00099936
H        -0.97129029     0.12035196     1.87590832     0.00107437     0.00059438     0.00011151
H        -1.05834332     0.14846700    -0.58042540     0.00012551     0.00020792    -0.00065594
     6
  Step:    40            Position(A)                                  Velocity(au)
C        -0.03574761     0.02325449    -0.13996495    -0.00004507    -0.00004513    -0.00037596
N        -0.04291603    -0.09561066     1.43476303    -0.00005735    -0.00009249     0.00031838
H         0.97803772     0.04497513    -0.57546674    -0.00003230     0.00072387    -0.00041689
H         0.85398233     0.06349540     1.90491500     0.00005127     0.00029076     0.00101901
H        -0.96517357     0.12372860     1.87649040     0.00111356     0.00062509     0.00010140
H        -1.05742599     0.14956304    -0.58404390     0.00020150     0.00018339    -0.00064780
     6
  Step:    41            Position(A)                                  Velocity(au)
C        -0.03602013     0.02299549    -0.14199465    -0.00005344    -0.00004809    -0.00035077
N        -0.04324259    -0.09612401     1.43647923    -0.00005855    -0.00009204     0.00029666
H         0.97787550     0.04911490    -0.57780107    -0.00001945     0.00076917    -0.00042551
H         0.85433628     0.06505523     1.91062778     0.00007071     0.00026277     0.00103349
H        -0.95890368     0.12730516     1.87703622     0.00112970     0.00066901     0.00009829
H        -1.05610199     0.15050696    -0.58763117     0.00026940     0.00015104    -0.00064890
     6
  Step:    42            Position(A)                                  Velocity(au)
C        -0.03634181     0.02271977    -0.14386557    -0.00006287    -0.00005147    -0.00030908
N        -0.04356708    -0.09663411     1.43806188    -0.00005651    -0.00009068     0.00026370
H         0.97782140     0.05352829    -0.58019846     0.00001927     0.00082096    -0.00045329
H         0.85476858     0.06641738     1.91640743     0.00008118     0.00021761     0.00104571
H        -0.95261124     0.13116800     1.87758344     0.00112019     0.00072721     0.00010331
H        -1.05443022     0.15124260    -0.59125973     0.00031390     0.00010766    -0.00067720
     6
  Step:    43            Position(A)                                  Velocity(au)
C        -0.03671904     0.02242336    -0.14543052    -0.00007457    -0.00005950    -0.00025465
N        -0.04387083    -0.09713208     1.43941065    -0.00005639    -0.00009339     0.00022539
H         0.97808966     0.05824111    -0.58284002     0.00009353     0.00090862    -0.00056015
H         0.85523869     0.06747428     1.92225236     0.00009176     0.00019490     0.00112258
H        -0.94645111     0.13538913     1.87818466     0.00115520     0.00081911     0.00013397
H        -1.05261253     0.15170375    -0.59515928     0.00033181     0.00008415    -0.00079410
     6
  Step:    44            Position(A)                                  Velocity(au)
C        -0.03712601     0.02208608    -0.14681503    -0.00007359    -0.00006186    -0.00024492
N        -0.04418306    -0.09765274     1.44062975    -0.00005400    -0.00009428     0.00021428
H         0.97850428     0.06323012    -0.58596191     0.00005927     0.00090236    -0.00055681
H         0.85572418     0.06867849     1.92840733     0.00007664     0.00022060     0.00109263
H        -0.94014281     0.13988185     1.87902160     0.00110703     0.00081851     0.00016661
H        -1.05063242     0.15227228    -0.59947248     0.00038440     0.00010583    -0.00076159
     6