 Fermi distribution function

Calculation with static geometry


********************************************************************************
 iSCC Total electronic   Diff electronic      SCC error    
   14   -0.52349273E+01   -0.12938095E-10    0.39261113E-06
********************************************************************************

 Total charge:     1.00000000

 Atomic gross charges (e)
 Atom           Charge
    1       0.30791386
    2      -0.18907134
    3       0.18318297
    4       0.25457583
    5       0.25558159
    6       0.18781709

Nr. of electrons (up):     12.00000000
Atom populations (up)
 Atom       Population
    1       3.69208614
    2       5.18907134
    3       0.81681703
    4       0.74542417
    5       0.74441841
    6       0.81218291

l-shell populations (up)
 Atom Sh.   l       Population
    1   1   0       1.43212275
    1   2   1       2.25996339
    2   1   0       1.55543204
    2   2   1       3.63363930
    3   1   0       0.81681703
    4   1   0       0.74542417
    5   1   0       0.74441841
    6   1   0       0.81218291

Orbital populations (up)
 Atom Sh.   l   m       Population  Label
    1   1   0   0       1.43212275  s
    1   2   1  -1       0.36567263  p_y
    1   2   1   0       0.87900061  p_z
    1   2   1   1       1.01529015  p_x
    2   1   0   0       1.55543204  s
    2   2   1  -1       1.36925608  p_y
    2   2   1   0       1.10084777  p_z
    2   2   1   1       1.16353545  p_x
    3   1   0   0       0.81681703  s
    4   1   0   0       0.74542417  s
    5   1   0   0       0.74441841  s
    6   1   0   0       0.81218291  s

Fermi level:                        -0.5244377679 H          -14.2707 eV
Band energy:                        -8.6130383671 H         -234.3727 eV
TS:                                  0.0000000000 H            0.0000 eV
Band free energy (E-TS):            -8.6130383671 H         -234.3727 eV
Extrapolated E(0K):                 -8.6130383671 H         -234.3727 eV
Input / Output electrons (q):     12.0000000000     12.0000000000

Energy H0:                          -5.3724353553 H         -146.1914 eV
Energy SCC:                          0.1375080199 H            3.7418 eV
Total Electronic energy:            -5.2349273355 H         -142.4496 eV
Repulsive energy:                    0.1233151009 H            3.3556 eV
Total energy:                       -5.1116122345 H         -139.0940 eV
Extrapolated to 0:                  -5.1116122345 H         -139.0940 eV
Total Mermin free energy:           -5.1116122345 H         -139.0940 eV
Force related energy:               -5.1116122345 H         -139.0940 eV

SCC converged

Excitation Energy:                   0.0925132852 H            2.5174 eV

Total Forces
    1     -0.007826292009     -0.002903132806      0.007032663663
    2      0.005364718879     -0.024363716366     -0.013654159883
    3      0.003391654287      0.000482635199     -0.002173296349
    4     -0.006494078729      0.013943902191      0.003253534786
    5      0.001278460021      0.007195207988      0.003690821740
    6      0.004285537550      0.005645103794      0.001850436043

Maximal derivative component:        0.243637E-01 au


