 Fermi distribution function

Calculation with static geometry


********************************************************************************
 iSCC Total electronic   Diff electronic      SCC error    
   13   -0.52979838E+01   -0.47254645E-10    0.85276133E-06
********************************************************************************

 Total charge:     1.00000000

 Atomic gross charges (e)
 Atom           Charge
    1       0.33338552
    2      -0.22153350
    3       0.17676605
    4       0.28228978
    5       0.26118337
    6       0.16790878

Nr. of electrons (up):     12.00000000
Atom populations (up)
 Atom       Population
    1       3.66661448
    2       5.22153350
    3       0.82323395
    4       0.71771022
    5       0.73881663
    6       0.83209122

l-shell populations (up)
 Atom Sh.   l       Population
    1   1   0       1.37688927
    1   2   1       2.28972521
    2   1   0       1.49540115
    2   2   1       3.72613236
    3   1   0       0.82323395
    4   1   0       0.71771022
    5   1   0       0.73881663
    6   1   0       0.83209122

Orbital populations (up)
 Atom Sh.   l   m       Population  Label
    1   1   0   0       1.37688927  s
    1   2   1  -1       0.44584807  p_y
    1   2   1   0       0.88071577  p_z
    1   2   1   1       0.96316136  p_x
    2   1   0   0       1.49540115  s
    2   2   1  -1       1.31294914  p_y
    2   2   1   0       1.10111645  p_z
    2   2   1   1       1.31206677  p_x
    3   1   0   0       0.82323395  s
    4   1   0   0       0.71771022  s
    5   1   0   0       0.73881663  s
    6   1   0   0       0.83209122  s

Fermi level:                        -0.5080477290 H          -13.8247 eV
Band energy:                        -8.7068819068 H         -236.9263 eV
TS:                                  0.0000000000 H            0.0000 eV
Band free energy (E-TS):            -8.7068819068 H         -236.9263 eV
Extrapolated E(0K):                 -8.7068819068 H         -236.9263 eV
Input / Output electrons (q):     12.0000000000     12.0000000000

Energy H0:                          -5.4344341750 H         -147.8785 eV
Energy SCC:                          0.1364503710 H            3.7130 eV
Total Electronic energy:            -5.2979838041 H         -144.1655 eV
Repulsive energy:                    0.1475971453 H            4.0163 eV
Total energy:                       -5.1503866587 H         -140.1492 eV
Extrapolated to 0:                  -5.1503866587 H         -140.1492 eV
Total Mermin free energy:           -5.1503866587 H         -140.1492 eV
Force related energy:               -5.1503866587 H         -140.1492 eV

SCC converged

Excitation Energy:                   0.0878934472 H            2.3917 eV

Total Forces
    1     -0.008197878248     -0.008284183359      0.071704099231
    2      0.008926408652     -0.006227798306     -0.073867878750
    3     -0.000300407654      0.016263751304      0.000459169777
    4     -0.011930646641     -0.007344080051     -0.000008505856
    5      0.004126525963      0.015165680790      0.000810867141
    6      0.007375997930     -0.009573370380      0.000902248456

Maximal derivative component:        0.738679E-01 au


