|===============================================================================
|
|  DFTB+ release 20.1
|
|  Copyright (C) 2006 - 2020  DFTB+ developers group
|
|===============================================================================
|
|  When publishing results obtained with DFTB+, please cite the following
|  reference:
|
|  * DFTB+, a software package for efficient approximate density functional
|    theory based atomistic simulations, J. Chem. Phys. 152, 124101 (2020).
|    [doi: 10.1063/1.5143190]
|
|  You should also cite additional publications crediting the parametrization
|  data you use. Please consult the documentation of the SK-files for the
|  references.
|
|===============================================================================

Reading input file 'dftb_in.hsd'
Parser version: 8

--------------------------------------------------------------------------------
Reading SK-files:
Done.


Processed input in HSD format written to 'dftb_pin.hsd'

Starting initialization...
--------------------------------------------------------------------------------
WARNING!
-> Excited state forces are not implemented yet for fractional occupations, kT=  0.3158E-02K
OpenMP threads:              1
Chosen random seed:          508102131
Mode:                        Static calculation
Self consistent charges:     Yes
SCC-tolerance:                 0.100000E-05
Max. scc iterations:                    100
Shell resolved Hubbard:      No
Spin polarisation:           No
Nr. of up electrons:             6.000000
Nr. of down electrons:           6.000000
Periodic boundaries:         No
Electronic solver:           Relatively robust
Mixer:                       Broyden mixer
Mixing parameter:                  0.200000
Maximal SCC-cycles:                     100
Nr. of chrg. vec. in memory:              0
Electronic temperature:        0.100000E-07 H      0.272114E-06 eV
Initial charges:             Set automatically (system chrg:   0.100E+01)
Included shells:             C:  s, p
                             N:  s, p
                             H:  s
Extra options:
                             Mulliken analysis
                             Force calculation
Force type                   original
                             Eigenvector printing

--------------------------------------------------------------------------------

***  Geometry step: 0

 iSCC Total electronic   Diff electronic      SCC error    
    1   -0.52668516E+01    0.00000000E+00    0.10711720E+01
    2   -0.52854903E+01   -0.18638750E-01    0.69577765E+00
    3   -0.52938772E+01   -0.83868532E-02    0.26651006E+00
    4   -0.51469249E+01    0.14695229E+00    0.12535129E+01
    5   -0.52965395E+01   -0.14961462E+00    0.12740737E+00
    6   -0.52979828E+01   -0.14432390E-02    0.42976468E-02
    7   -0.52979832E+01   -0.40076756E-06    0.49527681E-02
    8   -0.52979816E+01    0.15423765E-05    0.53412419E-02
    9   -0.52979822E+01   -0.58824076E-06    0.45706816E-02
   10   -0.52979837E+01   -0.14615050E-05    0.13488012E-02
   11   -0.52979837E+01   -0.86376133E-07    0.85053152E-03
   12   -0.52979838E+01   -0.56419822E-07    0.24441512E-04
   13   -0.52979838E+01   -0.47254645E-10    0.85276133E-06
>> Charges saved for restart in charges.bin

Total Energy:                       -5.0624932116 H         -137.7574 eV
Extrapolated to 0:                  -5.1503866587 H         -140.1492 eV
Total Mermin free energy:           -5.0624932116 H         -137.7574 eV
Force related energy:               -5.1503866587 H         -140.1492 eV

--------------------------------------------------------------------------------
DFTB+ running times                          cpu [s]             wall clock [s]
--------------------------------------------------------------------------------
SCC                                    +     0.01  ( 49.7%)      0.06  ( 69.0%)
Post-SCC processing                    +     0.01  ( 42.9%)      0.02  ( 23.0%)
--------------------------------------------------------------------------------
Missing                                +     0.00  (  7.4%)      0.01  (  8.0%)
Total                                  =     0.03  (100.0%)      0.09  (100.0%)
--------------------------------------------------------------------------------
