     6
  Step:     0            Position(A)                                  Velocity(au)
C        -0.03024679     0.00226510     0.01086460     0.00002420     0.00012578    -0.00024172
N        -0.04082086    -0.04745363     1.30705372     0.00013701    -0.00013230     0.00015805
H         0.90416450     0.07971080    -0.52923425    -0.00025869    -0.00045757     0.00040085
H         0.82889969    -0.11132644     1.83407934    -0.00137872     0.00068994    -0.00074224
H        -0.97781863    -0.06729405     1.82081577    -0.00070642     0.00037780     0.00089637
H        -1.04049993     0.06157290    -0.52636151     0.00015151    -0.00027056     0.00012901
     6
  Step:     1            Position(A)                                  Velocity(au)
C        -0.03015591     0.00294991     0.00918998     0.00000871     0.00012490    -0.00036917
N        -0.04011146    -0.04820042     1.30821029     0.00012022    -0.00014050     0.00026348
H         0.90292871     0.07732881    -0.52712200    -0.00018909    -0.00041497     0.00036765
H         0.82155229    -0.10748136     1.83020173    -0.00128666     0.00071348    -0.00066233
H        -0.98133297    -0.06513022     1.82561870    -0.00056915     0.00041170     0.00085428
H        -1.03934348     0.06016294    -0.52551662     0.00027040    -0.00024616     0.00017805
     6
  Step:     2            Position(A)                                  Velocity(au)
C        -0.03015146     0.00363149     0.00682603    -0.00000727     0.00012451    -0.00049281
N        -0.03950569    -0.04899068     1.30993604     0.00009922    -0.00014807     0.00036535
H         0.90209597     0.07517119    -0.52521231    -0.00011148    -0.00037550     0.00032674
H         0.81482426    -0.10352127     1.82683379    -0.00115180     0.00073170    -0.00055578
H        -0.98404482    -0.06279021     1.83016121    -0.00041481     0.00044173     0.00080178
H        -1.03754191     0.05888004    -0.52441375     0.00038589    -0.00022396     0.00022252
     6
  Step:     3            Position(A)                                  Velocity(au)
C        -0.03023549     0.00431235     0.00379731    -0.00002346     0.00012445    -0.00061086
N        -0.03902567    -0.04982074     1.31220821     0.00007441    -0.00015489     0.00046217
H         0.90170883     0.07321980    -0.52354653    -0.00002645    -0.00033916     0.00027851
H         0.80894844    -0.09947457     1.82411996    -0.00097524     0.00074474    -0.00042366
H        -0.98587219    -0.06029646     1.83439242    -0.00024768     0.00046743     0.00074079
H        -1.03512082     0.05771225    -0.52308168     0.00049485    -0.00020367     0.00026087
     6
  Step:     4            Position(A)                                  Velocity(au)
C        -0.03040827     0.00499409     0.00013789    -0.00003946     0.00012454    -0.00072142
N        -0.03869100    -0.05068652     1.31499622     0.00004635    -0.00016086     0.00055241
H         0.90180641     0.07145786    -0.52216300     0.00006505    -0.00030557     0.00022367
H         0.80414658    -0.09536733     1.82219528    -0.00076032     0.00075305    -0.00026856
H        -0.98675664    -0.05767249     1.83827193    -0.00007234     0.00048862     0.00067326
H        -1.03212397     0.05665012    -0.52155756     0.00059369    -0.00018476     0.00029148
     6
  Step:     5            Position(A)                                  Velocity(au)
C        -0.03066791     0.00567708    -0.00410815    -0.00005484     0.00012453    -0.00082247
N        -0.03851773    -0.05158354     1.31826171     0.00001584    -0.00016591     0.00063457
H         0.90242169     0.06987131    -0.52109554     0.00016148    -0.00027423     0.00016322
H         0.80061662    -0.09122241     1.82117701    -0.00051295     0.00075717    -0.00009474
H        -0.98666487    -0.05494203     1.84177014     0.00010624     0.00050523     0.00060127
H        -1.02861506     0.05568761    -0.51988758     0.00067856    -0.00016661     0.00031265
     6
  Step:     6            Position(A)                                  Velocity(au)
C        -0.03100998     0.00636041    -0.00888633    -0.00006908     0.00012417    -0.00091198
N        -0.03851718    -0.05250688     1.32195874    -0.00001611    -0.00016991     0.00070717
H         0.90357819     0.06844898    -0.52037216     0.00026067    -0.00024467     0.00009842
H         0.79851840    -0.08705955     1.82115580    -0.00024177     0.00075756     0.00009190
H        -0.98559096    -0.05212902     1.84486913     0.00028259     0.00051717     0.00052712
H        -1.02467879     0.05482211    -0.51812712     0.00074553    -0.00014864     0.00032272
     6
  Step:     7            Position(A)                                  Velocity(au)
C        -0.03142720     0.00704187    -0.01413165    -0.00008164     0.00012326    -0.00098799
N        -0.03869475    -0.05345103     1.32603409    -0.00004827    -0.00017276     0.00076888
H         0.90528666     0.06718217    -0.52001377     0.00035986    -0.00021652     0.00003079
H         0.79795939    -0.08289620     1.82218706     0.00004212     0.00075451     0.00028398
H        -0.98355896    -0.04925794     1.84756369     0.00045082     0.00052428     0.00045331
H        -1.02042101     0.05405398    -0.51634057     0.00079083    -0.00013038     0.00032019
     6
  Step:     8            Position(A)                                  Velocity(au)
C        -0.03190924     0.00771811    -0.01976909    -0.00009195     0.00012159    -0.00104876
N        -0.03904890    -0.05440983     1.33042799    -0.00007928    -0.00017433     0.00081860
H         0.90754207     0.06606404    -0.52003297     0.00045585    -0.00018953    -0.00003795
H         0.79898237    -0.07874855     1.82428389     0.00032572     0.00074820     0.00047312
H        -0.98062519    -0.04635404     1.84986238     0.00060474     0.00052648     0.00038252
H        -1.01596779     0.05338597    -0.51460026     0.00081114    -0.00011151     0.00030389
     6
  Step:     9            Position(A)                                  Velocity(au)
C        -0.03244277     0.00838480    -0.02571484    -0.00009952     0.00011904    -0.00109301
N        -0.03957041    -0.05537647     1.33507516    -0.00010771    -0.00017454     0.00085554
H         0.91032138     0.06508886    -0.52043286     0.00054521    -0.00016362    -0.00010587
H         0.80155686    -0.07463257     1.82741254     0.00059520     0.00073868     0.00065060
H        -0.97687986    -0.04344321     1.85178852     0.00073818     0.00052376     0.00031756
H        -1.01146232     0.05282240    -0.51298427     0.00080405    -0.00009185     0.00027323
     6
  Step:    10            Position(A)                                  Velocity(au)
C        -0.03301181     0.00903694    -0.03187870    -0.00010396     0.00011554    -0.00112014
N        -0.04024223    -0.05634359     1.33990657    -0.00013220    -0.00017335     0.00087942
H         0.91358252     0.06425128    -0.52120595     0.00062459    -0.00013882    -0.00017095
H         0.80557671    -0.07056466     1.83149201     0.00083731     0.00072599     0.00080831
H        -0.97244683    -0.04055126     1.85338069     0.00084551     0.00051637     0.00026120
H        -1.00705967     0.05236831    -0.51157312     0.00076845    -0.00007140     0.00022835
     6
  Step:    11            Position(A)                                  Velocity(au)
C        -0.03359845     0.00966924    -0.03816761    -0.00017526     0.00018537    -0.00188586
N        -0.04104011    -0.05730364     1.34485178    -0.00025298    -0.00028496     0.00148570
H         0.91726504     0.06354556    -0.52233329     0.00115296    -0.00019232    -0.00038566
H         0.81086538    -0.06656162     1.83639859     0.00173642     0.00118497     0.00156757
H        -0.96748025    -0.03770265     1.85469235     0.00153852     0.00084221     0.00036029
H        -1.00291934     0.05202863    -0.51044568     0.00117591    -0.00008387     0.00028392
     6
  Step:    12            Position(A)                                  Velocity(au)
C        -0.03456698     0.01067226    -0.04835283    -0.00016527     0.00016932    -0.00171313
N        -0.04248586    -0.05885875     1.35290791    -0.00025428    -0.00026504     0.00136107
H         0.92409413     0.06256005    -0.52497131     0.00125152    -0.00015785    -0.00053770
H         0.82102643    -0.06010396     1.84546206     0.00182400     0.00110066     0.00161639
H        -0.95883765    -0.03309292     1.85661934     0.00149533     0.00078857     0.00033303
H        -0.99692026     0.05160454    -0.50938171     0.00093212    -0.00006594     0.00008800
     6
  Step:    13            Position(A)                                  Velocity(au)
C        -0.03546977     0.01158638    -0.05756464    -0.00015037     0.00015216    -0.00152471
N        -0.04391921    -0.06030463     1.36026263    -0.00024581    -0.00024342     0.00122389
H         0.93143546     0.06175829    -0.52842143     0.00131629    -0.00012579    -0.00066403
H         0.83151780    -0.05409929     1.85470033     0.00183236     0.00101192     0.00161108
H        -0.95054925    -0.02877400     1.85846312     0.00139762     0.00073087     0.00032618
H        -0.99236533     0.05128197    -0.50944929     0.00066140    -0.00004762    -0.00011233
     6
  Step:    14            Position(A)                                  Velocity(au)
C        -0.03628009     0.01240584    -0.06572388    -0.00013285     0.00013586    -0.00134193
N        -0.04528641    -0.06163203     1.36685168    -0.00023102    -0.00022300     0.00109074
H         0.93909060     0.06112690    -0.53253658     0.00135835    -0.00009769    -0.00076986
H         0.84190254    -0.04857520     1.86381708     0.00178644     0.00092949     0.00157298
H        -0.94291454    -0.02476608     1.86033550     0.00126564     0.00067823     0.00034109
H        -0.98938491     0.05106200    -0.51066150     0.00038295    -0.00003005    -0.00031105
     6
  Step:    15            Position(A)                                  Velocity(au)
C        -0.03698468     0.01313560    -0.07286712    -0.00011436     0.00012149    -0.00117649
N        -0.04655361    -0.06284761     1.37270069    -0.00021259    -0.00020549     0.00097088
H         0.94692520     0.06064430    -0.53720036     0.00138797    -0.00007390    -0.00086243
H         0.85188912    -0.04350005     1.87263749     0.00170751     0.00085941     0.00151933
H        -0.93611675    -0.02103993     1.86235266     0.00111405     0.00063614     0.00037771
H        -0.98799845     0.05093928    -0.51299628     0.00010748    -0.00001376    -0.00050719
     6
  Step:    16            Position(A)                                  Velocity(au)
C        -0.03757977     0.01378648    -0.07909405    -0.00009565     0.00010921    -0.00103024
N        -0.04770238    -0.06396734     1.37788517    -0.00019177    -0.00019117     0.00086580
H         0.95486404     0.06028705    -0.54233764     0.00140940    -0.00005396    -0.00094654
H         0.86130740    -0.03880852     1.88108341     0.00160638     0.00080215     0.00145816
H        -0.93025408    -0.01753676     1.86462791     0.00094924     0.00060579     0.00043445
H        -0.98816344     0.05090557    -0.51642541    -0.00016030     0.00000114    -0.00070121
     6
  Step:    17            Position(A)                                  Velocity(au)
C        -0.03806594     0.01437013    -0.08451352    -0.00007694     0.00009865    -0.00089975
N        -0.04872152    -0.06500866     1.38248820    -0.00016884    -0.00017944     0.00077272
H         0.96285777     0.06003427    -0.54790059     0.00142132    -0.00003717    -0.00102331
H         0.87004849    -0.03443209     1.88912127     0.00148557     0.00075487     0.00139027
H        -0.92538609    -0.01419174     1.86726389     0.00077288     0.00058565     0.00050823
H        -0.98981055     0.05095216    -0.52092317    -0.00041671     0.00001465    -0.00089186
     6
  Step:    18            Position(A)                                  Velocity(au)
C        -0.03844518     0.01489615    -0.08921489    -0.00005840     0.00008937    -0.00078081
N        -0.04960160    -0.06598581     1.38657721    -0.00014386    -0.00016955     0.00068816
H         0.97085183     0.05986897    -0.55384839     0.00142021    -0.00002293    -0.00109170
H         0.87801788    -0.03031729     1.89672193     0.00134486     0.00071411     0.00131398
H        -0.92156030    -0.01094902     1.87034479     0.00058651     0.00057337     0.00059484
H        -0.99285087     0.05107034    -0.52645758    -0.00065662     0.00002668    -0.00107580
     6
  Step:    19            Position(A)                                  Velocity(au)
C        -0.03872039     0.01537165    -0.09326399    -0.00004032     0.00008101    -0.00067041
N        -0.05033371    -0.06690883     1.39020027    -0.00011709    -0.00016088     0.00060952
H         0.97877387     0.05977732    -0.56013508     0.00140300    -0.00001085    -0.00115024
H         0.88512016    -0.02642911     1.90384686     0.00118483     0.00067718     0.00122808
H        -0.91881314    -0.00776609     1.87393015     0.00039362     0.00056679     0.00068939
H        -0.99716924     0.05125114    -0.53297950    -0.00087384     0.00003709    -0.00124880
     6
  Step:    20            Position(A)                                  Velocity(au)
C        -0.03889593     0.01580183    -0.09670955    -0.00002307     0.00007338    -0.00056676
N        -0.05091059    -0.06778432     1.39339121    -0.00008908    -0.00015299     0.00053531
H         0.98653625     0.05974767    -0.56670721     0.00136800    -0.00000068    -0.00119791
H         0.89126341    -0.02274696     1.91045094     0.00100765     0.00064232     0.00113262
H        -0.91715989    -0.00461271     1.87805161     0.00019960     0.00056419     0.00078678
H        -1.00261975     0.05148499    -0.54041815    -0.00106242     0.00004575    -0.00140684
     6
  Step:    21            Position(A)                                  Velocity(au)
C        -0.03897794     0.01619071    -0.09959017    -0.00000703     0.00006633    -0.00046894
N        -0.05132801    -0.06861653     1.39617540    -0.00006052    -0.00014562     0.00046475
H         0.99404350     0.05976973    -0.57350616     0.00131489     0.00000776    -0.00123427
H         0.89636756    -0.01925950     1.91648912     0.00081663     0.00060855     0.00102861
H        -0.91658526    -0.00146859     1.88271214     0.00001088     0.00056415     0.00088197
H        -1.00902797     0.05176177    -0.54868265    -0.00121759     0.00005256    -0.00154671
     6
  Step:    22            Position(A)                                  Velocity(au)
C        -0.03897435     0.01654157    -0.10193902     0.00000749     0.00005981    -0.00037650
N        -0.05158549    -0.06940817     1.39857390    -0.00003217    -0.00013857     0.00039751
H         1.00119938     0.05983420    -0.58047125     0.00124434     0.00001461    -0.00125937
H         0.90037017    -0.01596062     1.92192163     0.00061562     0.00057536     0.00091765
H        -0.91703856     0.00167848     1.88788697    -0.00016585     0.00056547     0.00097024
H        -1.01619788     0.05207108    -0.55766642    -0.00133626     0.00005749    -0.00166616
     6
  Step:    23            Position(A)                                  Velocity(au)
C        -0.03889450     0.01685727    -0.10378640     0.00002026     0.00005374    -0.00028918
N        -0.05168657    -0.07016097     1.40060585    -0.00000476    -0.00013174     0.00033350
H         1.00791229     0.05993253    -0.58754246     0.00115766     0.00001998    -0.00127362
H         0.90322895    -0.01284688     1.92671684     0.00040861     0.00054252     0.00080158
H        -0.91843371     0.00483390     1.89352598    -0.00032439     0.00056711     0.00104741
H        -1.02392130     0.05240252    -0.56725280    -0.00141710     0.00006058    -0.00176393
     6
  Step:    24            Position(A)                                  Velocity(au)
C        -0.03874861     0.01714038    -0.10516103     0.00003117     0.00004811    -0.00020683
N        -0.05163858    -0.07087598     1.40228972     0.00002103    -0.00012503     0.00027270
H         1.01409803     0.06005680    -0.59466202     0.00105650     0.00002398    -0.00127765
H         0.90492294    -0.00991583     1.93085289     0.00019961     0.00051003     0.00068237
H        -0.92065289     0.00799729     1.89955722    -0.00045951     0.00056817     0.00110999
H        -1.03198723     0.05274609    -0.57732026    -0.00146035     0.00006192    -0.00183966
     6
  Step:    25            Position(A)                                  Velocity(au)
C        -0.03854725     0.01739327    -0.10609055     0.00004019     0.00004289    -0.00012933
N        -0.05145224    -0.07155383     1.40364377     0.00004467    -0.00011840     0.00021513
H         1.01968185     0.06019970    -0.60177565     0.00094277     0.00002673    -0.00127222
H         0.90545263    -0.00716507     1.93431851    -0.00000752     0.00047798     0.00056200
H        -0.92355271     0.01116335     1.90589139    -0.00056728     0.00056786     0.00115534
H        -1.04018981     0.05309233    -0.58774684    -0.00146759     0.00006163    -0.00189366
     6
  Step:    26            Position(A)                                  Velocity(au)
C        -0.03830090     0.01761815    -0.10660162     0.00004737     0.00003805    -0.00005651
N        -0.05114105    -0.07219487     1.40468611     0.00006569    -0.00011181     0.00016078
H         1.02459964     0.06035454    -0.60883340     0.00081846     0.00002833    -0.00125820
H         0.90483916    -0.00459160     1.93711312    -0.00020914     0.00044652     0.00044243
H        -0.92697192     0.01432278     1.91242668    -0.00064522     0.00056560     0.00118171
H        -1.04833491     0.05343259    -0.59841393    -0.00144141     0.00005986    -0.00192685
     6
  Step:    27            Position(A)                                  Velocity(au)
C        -0.03801961     0.01781711    -0.10671997     0.00005281     0.00003357     0.00001180
N        -0.05072057    -0.07279926     1.40543459     0.00008379    -0.00010525     0.00010957
H         1.02879824     0.06051522    -0.61579007     0.00068556     0.00002888    -0.00123649
H         0.90312310    -0.00219147     1.93924652    -0.00040187     0.00041588     0.00032550
H        -0.93073950     0.01746326     1.91905391    -0.00069226     0.00056093     0.00118823
H        -1.05624488     0.05375906    -0.60920900    -0.00138507     0.00005677    -0.00194055
     6
  Step:    28            Position(A)                                  Velocity(au)
C        -0.03771268     0.01799208    -0.10647022     0.00005667     0.00002943     0.00007579
N        -0.05020785    -0.07336711     1.40590656     0.00009875    -0.00009870     0.00006141
H         1.03223544     0.06067622    -0.62260543     0.00054602     0.00002850    -0.00120801
H         0.90036313     0.00004045     1.94073853    -0.00058260     0.00038627     0.00021297
H        -0.93468229     0.02057038     1.92566122    -0.00070861     0.00055356     0.00117480
H        -1.06376178     0.05406487    -0.62002776    -0.00130230     0.00005253    -0.00193640
     6
  Step:    29            Position(A)                                  Velocity(au)
C        -0.03738849     0.01814488    -0.10587582     0.00005910     0.00002560     0.00013570
N        -0.04962077    -0.07389853     1.40611860     0.00011047    -0.00009218     0.00001614
H         1.03487946     0.06083266    -0.62924419     0.00040162     0.00002729    -0.00117363
H         0.89663448     0.00211055     1.94161841    -0.00074849     0.00035792     0.00010647
H        -0.93863156     0.02362850     1.93213822    -0.00069558     0.00054336     0.00114203
H        -1.07074922     0.05434408    -0.63077548    -0.00119691     0.00004730    -0.00191612
     6
  Step:    30            Position(A)                                  Velocity(au)
C        -0.03705452     0.01827720    -0.10495902     0.00006028     0.00002207     0.00019173
N        -0.04897758    -0.07439371     1.40608629     0.00011892    -0.00008571    -0.00002645
H         1.03670813     0.06098019    -0.63567580     0.00025402     0.00002536    -0.00113419
H         0.89202744     0.00402655     1.94192427    -0.00089699     0.00033109     0.00000755
H        -0.94242880     0.02662163     1.93837961    -0.00065538     0.00053033     0.00109104
H        -1.07709139     0.05459159    -0.64136700    -0.00107253     0.00004122    -0.00188146
     6
  Step:    31            Position(A)                                  Velocity(au)
C        -0.03671728     0.01839062    -0.10374082     0.00006036     0.00001881     0.00024411
N        -0.04829645    -0.07485292     1.40582405     0.00012415    -0.00007930    -0.00006658
H         1.03770812     0.06111503    -0.64187424     0.00010472     0.00002279    -0.00109048
H         0.88664588     0.00579751     1.94170244    -0.00102581     0.00030601    -0.00008241
H        -0.94592969     0.02953405     1.94428778    -0.00059079     0.00051455     0.00102340
H        -1.08269262     0.05480308    -0.65172687    -0.00093268     0.00003443    -0.00183413
     6
  Step:    32            Position(A)                                  Velocity(au)
C        -0.03638240     0.01848661    -0.10224098     0.00005952     0.00001580     0.00029307
N        -0.04759522    -0.07527663     1.40534493     0.00012623    -0.00007298    -0.00010450
H         1.03787412     0.06123391    -0.64781768    -0.00004491     0.00001967    -0.00104319
H         0.88060557     0.00743378     1.94100669    -0.00113293     0.00028289    -0.00016211
H        -0.94900691     0.03235087     1.94977469    -0.00050502     0.00049622     0.00094094
H        -1.08747626     0.05497497    -0.66178909    -0.00078062     0.00002706    -0.00177577
     6
  Step:    33            Position(A)                                  Velocity(au)
C        -0.03605461     0.01856653    -0.10047801     0.00005790     0.00001303     0.00033882
N        -0.04689107    -0.07566542     1.40466064     0.00012530    -0.00006679    -0.00014046
H         1.03720810     0.06133402    -0.65348819    -0.00019364     0.00001609    -0.00099300
H         0.87403283     0.00894691     1.93989767    -0.00121656     0.00026195    -0.00023037
H        -0.95155212     0.03505848     1.95476328    -0.00040158     0.00047558     0.00084567
H        -1.09138327     0.05510430    -0.67149665    -0.00061931     0.00001920    -0.00170789
     6
  Step:    34            Position(A)                                  Velocity(au)
C        -0.03573793     0.01863166    -0.09846936     0.00005561     0.00001048     0.00038154
N        -0.04620044    -0.07602010     1.40378141     0.00012150    -0.00006076    -0.00017470
H         1.03571856     0.06141304    -0.65887133    -0.00034036     0.00001213    -0.00094049
H         0.86706339     0.01034964     1.93844229    -0.00127515     0.00024338    -0.00028615
H        -0.95347714     0.03764485     1.95918835    -0.00028411     0.00045295     0.00073977
H        -1.09437014     0.05518871    -0.68080059    -0.00045140     0.00001096    -0.00163186
     6
  Step:    35            Position(A)                                  Velocity(au)
C        -0.03543568     0.01868317    -0.09623144     0.00005277     0.00000813     0.00042139
N        -0.04553881    -0.07634167     1.40271617     0.00011501    -0.00005492    -0.00020747
H         1.03341993     0.06146901    -0.66395586    -0.00048402     0.00000785    -0.00088619
H         0.85984038     0.01165573     1.93671280    -0.00130758     0.00022735    -0.00032861
H        -0.95471422     0.04009979     1.96299694    -0.00015622     0.00042864     0.00062540
H        -1.09640737     0.05522629    -0.68965933    -0.00027921     0.00000241    -0.00154889
     6
  Step:    36            Position(A)                                  Velocity(au)
C        -0.03515063     0.01872215    -0.09377988     0.00004948     0.00000597     0.00045849
N        -0.04492058    -0.07663128     1.40147260     0.00010604    -0.00004930    -0.00023893
H         1.03033213     0.06150039    -0.66873341    -0.00062365     0.00000332    -0.00083059
H         0.85251181     0.01287972     1.93478531    -0.00131325     0.00021397    -0.00035721
H        -0.95521568     0.04241504     1.96614824    -0.00002147     0.00040301     0.00050474
H        -1.09747740     0.05521558    -0.69803760    -0.00010478    -0.00000637    -0.00146003
     6
  Step:    37            Position(A)                                  Velocity(au)
C        -0.03488513     0.01874963    -0.09112963     0.00004579     0.00000399     0.00049293
N        -0.04435886    -0.07689029     1.40005744     0.00009484    -0.00004394    -0.00026925
H         1.02648032     0.06150598    -0.67319825    -0.00075831    -0.00000139    -0.00077415
H         0.84522729     0.01403662     1.93273800    -0.00129215     0.00020328    -0.00037174
H        -0.95495318     0.04458432     1.96861336     0.00011673     0.00037642     0.00037988
H        -1.09757329     0.05515546    -0.70590573     0.00007007    -0.00001532    -0.00136622
     6
  Step:    38            Position(A)                                  Velocity(au)
C        -0.03464110     0.01876658    -0.08829519     0.00004179     0.00000218     0.00052477
N        -0.04386530    -0.07712019     1.39847675     0.00008170    -0.00003885    -0.00029850
H         1.02189467     0.06148490    -0.67734714    -0.00088707    -0.00000624    -0.00071729
H         0.83813448     0.01514154     1.93064904    -0.00124495     0.00019527    -0.00037241
H        -0.95391683     0.04660337     1.97037500     0.00025514     0.00034922     0.00025288
H        -1.09669778     0.05504516    -0.71323913     0.00024363    -0.00002438    -0.00126834
     6
  Step:    39            Position(A)                                  Velocity(au)
C        -0.03442016     0.01877392    -0.08529080     0.00003752     0.00000053     0.00055402
N        -0.04344986    -0.07732259     1.39673621     0.00006692    -0.00003406    -0.00032672
H         1.01661029     0.06143659    -0.68117913    -0.00100903    -0.00001115    -0.00066041
H         0.83137535     0.01620925     1.92859439    -0.00117301     0.00018983    -0.00035980
H        -0.95211432     0.04846994     1.97142702     0.00039064     0.00032178     0.00012576
H        -1.09486253     0.05488420    -0.72001788     0.00041433    -0.00003350    -0.00116719
     6
  Step:    40            Position(A)                                  Velocity(au)
C        -0.03422363     0.01877252    -0.08213059     0.00003303    -0.00000096     0.00058068
N        -0.04312065    -0.07749921     1.39484141     0.00005089    -0.00002959    -0.00035387
H         1.01066724     0.06136080    -0.68469552    -0.00112325    -0.00001609    -0.00060393
H         0.82508245     0.01725376     1.92664553    -0.00107841     0.00018678    -0.00033496
H        -0.94957019     0.05018383     1.97177430     0.00052023     0.00029447     0.00000049
H        -1.09208752     0.05467242    -0.72622637     0.00058069    -0.00004262    -0.00106353
     6
  Step:    41            Position(A)                                  Velocity(au)
C        -0.03405259     0.01876324    -0.07882883     0.00002837    -0.00000230     0.00060470
N        -0.04288359    -0.07765183     1.39279823     0.00003400    -0.00002543    -0.00037988
H         1.00411049     0.06125754    -0.68789979    -0.00122882    -0.00002099    -0.00054823
H         0.81937463     0.01828779     1.92486684    -0.00096397     0.00018584    -0.00029941
H        -0.94632505     0.05174690     1.97143251     0.00064104     0.00026767    -0.00012096
H        -1.08840054     0.05440993    -0.73185304     0.00074128    -0.00005169    -0.00095809
     6
  Step:    42            Position(A)                                  Velocity(au)
C        -0.03390791     0.01874692    -0.07540004     0.00002356    -0.00000349     0.00062600
N        -0.04274223    -0.07778230     1.39061317     0.00001671    -0.00002161    -0.00040459
H         0.99699001     0.06112712    -0.69079757    -0.00132480    -0.00002582    -0.00049373
H         0.81435310     0.01932222     1.92331300    -0.00083327     0.00018663    -0.00025510
H        -0.94243513     0.05316310     1.97042793     0.00075035     0.00024175    -0.00023670
H        -1.08383681     0.05409711    -0.73689027     0.00089476    -0.00006065    -0.00085159
     6
  Step:    43            Position(A)                                  Velocity(au)
C        -0.03379028     0.01872438    -0.07185918     0.00001865    -0.00000453     0.00064450
N        -0.04269755    -0.07789247     1.38829366    -0.00000049    -0.00001813    -0.00042782
H         0.98936081     0.06097012    -0.69339675    -0.00141027    -0.00003050    -0.00044084
H         0.81009737     0.02036565     1.92202663    -0.00069051     0.00018870    -0.00020440
H        -0.93797098     0.05443848     1.96879723     0.00084564     0.00021711    -0.00034484
H        -1.07843872     0.05373464    -0.74133430     0.00103981    -0.00006946    -0.00074477
     6
  Step:    44            Position(A)                                  Velocity(au)
C        -0.03370022     0.01869647    -0.06822175     0.00001366    -0.00000542     0.00066010
N        -0.04274774    -0.07798421     1.38584828    -0.00001711    -0.00001498    -0.00044931
H         0.98128281     0.06078740    -0.69570752    -0.00148436    -0.00003501    -0.00038999
H         0.80666242     0.02142396     1.92103644    -0.00054029     0.00019155    -0.00014994
H        -0.93301666     0.05558122     1.96658721     0.00092455     0.00019412    -0.00044358
H        -1.07225567     0.05332346    -0.74518538     0.00117518    -0.00007806    -0.00063839
     6