     6
  Step:     0            Position(A)                                  Velocity(au)
C        -0.03579011     0.02103462     0.01665688    -0.00015906     0.00012878    -0.00043607
N        -0.03613530    -0.06746221     1.29538080     0.00020212    -0.00000179     0.00027562
H         0.90201442    -0.02342343    -0.53656321     0.00046295    -0.00068727    -0.00010730
H         0.77004002    -0.05537425     1.86228804    -0.00064556    -0.00016570     0.00011460
H        -0.96896662     0.01541563     1.86506502    -0.00161092    -0.00029585     0.00085942
H        -0.98740010     0.08043340    -0.49830014     0.00088013    -0.00036085     0.00049945
     6
  Step:     1            Position(A)                                  Velocity(au)
C        -0.03665705     0.02174896     0.01390331    -0.00015643     0.00013258    -0.00056839
N        -0.03511538    -0.06750902     1.29721320     0.00016919    -0.00001477     0.00039289
H         0.90469763    -0.02708509    -0.53719481     0.00051077    -0.00065371    -0.00012278
H         0.76719346    -0.05615321     1.86328578    -0.00038682    -0.00012161     0.00025702
H        -0.97727719     0.01385396     1.86943460    -0.00141380    -0.00027882     0.00073175
H        -0.98276895     0.07857408    -0.49568750     0.00080276    -0.00032048     0.00044731
     6
  Step:     2            Position(A)                                  Velocity(au)
C        -0.03750188     0.02248538     0.01043728    -0.00015072     0.00013658    -0.00069444
N        -0.03428393    -0.06762381     1.29967999     0.00013344    -0.00002654     0.00050597
H         0.90760348    -0.03057664    -0.53790676     0.00054412    -0.00062402    -0.00013652
H         0.76580724    -0.05670493     1.86510041    -0.00011506    -0.00008284     0.00040981
H        -0.98443707     0.01236463     1.87307216    -0.00119103    -0.00026863     0.00059242
H        -0.97861598     0.07692661    -0.49340545     0.00070363    -0.00028322     0.00037820
     6
  Step:     3            Position(A)                                  Velocity(au)
C        -0.03830776     0.02324475     0.00629778    -0.00014189     0.00014052    -0.00081160
N        -0.03365396    -0.06779963     1.30275458     0.00009581    -0.00003697     0.00061279
H         0.91065691    -0.03391937    -0.53869000     0.00056421    -0.00059756    -0.00014856
H         0.76593331    -0.05706043     1.86777401     0.00016132    -0.00004973     0.00056634
H        -0.99032145     0.01091188     1.87592281    -0.00094828    -0.00026421     0.00044474
H        -0.97506273     0.07547226    -0.49154540     0.00058209    -0.00024927     0.00029308
     6
  Step:     4            Position(A)                                  Velocity(au)
C        -0.03905781     0.02402633     0.00153753    -0.00012999     0.00014408    -0.00091719
N        -0.03323331    -0.06802919     1.30639963     0.00005732    -0.00004601     0.00071122
H         0.91379037    -0.03712930    -0.53953584     0.00057227    -0.00057314    -0.00015899
H         0.76757622    -0.05725024     1.87131073     0.00043285    -0.00002198     0.00071920
H        -0.99483555     0.00946736     1.87794900    -0.00069131    -0.00026403     0.00029211
H        -0.97223300     0.07419322    -0.49019166     0.00043861    -0.00021829     0.00019377
     6
  Step:     5            Position(A)                                  Velocity(au)
C        -0.03973565     0.02482736    -0.00377704    -0.00011520     0.00014686    -0.00100859
N        -0.03302433    -0.06830506     1.31056684     0.00001907    -0.00005364     0.00079910
H         0.91694291    -0.04021493    -0.54043642     0.00056941    -0.00054934    -0.00016798
H         0.77068785    -0.05730188     1.87567394     0.00068923     0.00000097     0.00086063
H        -0.99791508     0.00801172     1.87913143    -0.00042632    -0.00026639     0.00013826
H        -0.97024483     0.07307453    -0.48941690     0.00027546    -0.00018975     0.00008305
     6
  Step:     6            Position(A)                                  Velocity(au)
C        -0.04032612     0.02564311    -0.00956626    -0.00009788     0.00014851    -0.00108340
N        -0.03302339    -0.06861976     1.31519703    -0.00001778    -0.00005984     0.00087437
H         0.92005913    -0.04317705    -0.54138514     0.00055665    -0.00052488    -0.00017573
H         0.77516413    -0.05723954     1.88078559     0.00092006     0.00001967     0.00098317
H        -0.99952900     0.00653461     1.87947117    -0.00016024    -0.00026972    -0.00001260
H        -0.96920042     0.07210426    -0.48927740     0.00009687    -0.00016322    -0.00003546
     6
  Step:     7            Position(A)                                  Velocity(au)
C        -0.04081629     0.02646702    -0.01573833    -0.00007856     0.00014876    -0.00113968
N        -0.03322058    -0.06896570     1.32022031    -0.00005201    -0.00006457     0.00093521
H         0.92308860    -0.04600986    -0.54237661     0.00053501    -0.00049879    -0.00018241
H         0.78084584    -0.05708472     1.88652863     0.00111569     0.00003453     0.00108025
H        -0.99968425     0.00503393     1.87899226     0.00009916    -0.00027259    -0.00015592
H        -0.96917530     0.07127253    -0.48980840    -0.00009101    -0.00013847    -0.00015734
     6
  Step:     8            Position(A)                                  Velocity(au)
C        -0.04119647     0.02729115    -0.02219184    -0.00005799     0.00014745    -0.00117635
N        -0.03359953    -0.06933513     1.32555740    -0.00008247    -0.00006786     0.00098035
H         0.92598610    -0.04870274    -0.54340592     0.00050573    -0.00047053    -0.00018808
H         0.78752391    -0.05685703     1.89275282     0.00126831     0.00004585     0.00114703
H        -0.99843044     0.00351480     1.87774382     0.00034364    -0.00027387    -0.00028698
H        -0.97020859     0.07057028    -0.49102045    -0.00028065    -0.00011548    -0.00027782
     6
  Step:     9            Position(A)                                  Velocity(au)
C        -0.04146116     0.02810683    -0.02882029    -0.00003701     0.00014458    -0.00119353
N        -0.03413775    -0.06972037     1.33112262    -0.00010820    -0.00006976     0.00100945
H         0.92871272    -0.05124257    -0.54446820     0.00047041    -0.00044006    -0.00019293
H         0.79495049    -0.05657483     1.89928455     0.00137313     0.00005388     0.00118108
H        -0.99586275     0.00198822     1.87580085     0.00056507    -0.00027275    -0.00040135
H        -0.97229631     0.06998825    -0.49289802    -0.00046402    -0.00009441    -0.00039234
     6
  Step:    10            Position(A)                                  Velocity(au)
C        -0.04160969     0.02890545    -0.03551850    -0.00001651     0.00014030    -0.00119285
N        -0.03480770    -0.07011408     1.33682873    -0.00012854    -0.00007042     0.00102338
H         0.93123854    -0.05361629    -0.54556014     0.00043110    -0.00040783    -0.00019738
H         0.80285589    -0.05625541     1.90594041     0.00142920     0.00005888     0.00118287
H        -0.99212102     0.00046936     1.87326244     0.00075650    -0.00026879    -0.00049552
H        -0.97538967     0.06951615    -0.49540118    -0.00063376    -0.00007547    -0.00049720
     6
  Step:    11            Position(A)                                  Velocity(au)
C        -0.04164626     0.02967940    -0.04219056     0.00000424     0.00021230    -0.00185221
N        -0.03557856    -0.07050971     1.34259342    -0.00022535    -0.00011023     0.00161133
H         0.93354482    -0.05581375    -0.54668062     0.00061371    -0.00058947    -0.00031774
H         0.81096993    -0.05591483     1.91254293     0.00226465     0.00009623     0.00181803
H        -0.98738332    -0.00102455     1.87024674     0.00143644    -0.00041211    -0.00089251
H        -0.97939992     0.06914236    -0.49847094    -0.00123384    -0.00009264    -0.00092836
     6
  Step:    12            Position(A)                                  Velocity(au)
C        -0.04158109     0.03084139    -0.05218261     0.00001758     0.00019631    -0.00166139
N        -0.03685738    -0.07110985     1.35136630    -0.00022094    -0.00010077     0.00147237
H         0.93714670    -0.05910301    -0.54876887     0.00064970    -0.00056759    -0.00041273
H         0.82356057    -0.05535457     1.92262965     0.00213835     0.00010047     0.00171292
H        -0.97906924    -0.00332309     1.86514610     0.00146274    -0.00039481    -0.00088557
H        -0.98691211     0.06866323    -0.50421386    -0.00139004    -0.00007691    -0.00107788
     6
  Step:    13            Position(A)                                  Velocity(au)
C        -0.04144607     0.03191471    -0.06110868     0.00001669     0.00010525    -0.00085894
N        -0.03809438    -0.07165717     1.35935913    -0.00012253    -0.00005328     0.00077714
H         0.94094294    -0.06227683    -0.55138037     0.00039549    -0.00031875    -0.00029108
H         0.83531913    -0.05477082     1.93204780     0.00114806     0.00006072     0.00092135
H        -0.97072726    -0.00552021     1.86016282     0.00084010    -0.00021870    -0.00049487
H        -0.99522819     0.06826662    -0.51074464    -0.00087973    -0.00003696    -0.00069965
     6
  Step:    14            Position(A)                                  Velocity(au)
C        -0.04131222     0.03249291    -0.06588765     0.00002960     0.00009936    -0.00083075
N        -0.03878363    -0.07195456     1.36371709    -0.00011951    -0.00005186     0.00076297
H         0.94304046    -0.06398306    -0.55302602     0.00034709    -0.00028560    -0.00029103
H         0.84152017    -0.05444201     1.93699088     0.00103721     0.00005505     0.00082351
H        -0.96584522    -0.00671506     1.85735504     0.00087152    -0.00020325    -0.00048984
H        -1.00042578     0.06808176    -0.51484749    -0.00094770    -0.00002951    -0.00074587
     6
  Step:    15            Position(A)                                  Velocity(au)
C        -0.04111137     0.03303827    -0.07050320     0.00004082     0.00009473    -0.00081067
N        -0.03944591    -0.07224359     1.36798717    -0.00011448    -0.00005093     0.00075485
H         0.94486802    -0.06550648    -0.55467149     0.00030385    -0.00025699    -0.00029451
H         0.84704835    -0.05414825     1.94136042     0.00092284     0.00004895     0.00072822
H        -0.96087175    -0.00781864     1.85462349     0.00088282    -0.00018856    -0.00047365
H        -1.00594520     0.06793291    -0.51917930    -0.00100505    -0.00002442    -0.00078972
     6
  Step:    16            Position(A)                                  Velocity(au)
C        -0.04085332     0.03355779    -0.07500078     0.00005036     0.00009096    -0.00079588
N        -0.04007060    -0.07252710     1.37220272    -0.00010724    -0.00005035     0.00075020
H         0.94645617    -0.06687205    -0.55633673     0.00026453    -0.00023142    -0.00030078
H         0.85189432    -0.05389172     1.94517723     0.00080344     0.00004223     0.00063361
H        -0.95592100    -0.00883480     1.85203054     0.00087136    -0.00017365    -0.00044474
H        -1.01172405     0.06780720    -0.52372518    -0.00104920    -0.00002141    -0.00082933
     6
  Step:    17            Position(A)                                  Velocity(au)
C        -0.04054776     0.03405627    -0.07941029     0.00005813     0.00008772    -0.00078386
N        -0.04064608    -0.07280706     1.37638299    -0.00009762    -0.00004996     0.00074664
H         0.94782850    -0.06809642    -0.55803770     0.00022832    -0.00020772    -0.00030915
H         0.85604001    -0.05367569     1.94845148     0.00067832     0.00003473     0.00053860
H        -0.95112002    -0.00976203     1.84964621     0.00083461    -0.00015770    -0.00040183
H        -1.01768727     0.06769333    -0.52846069    -0.00107738    -0.00002025    -0.00086261
     6
  Step:    18            Position(A)                                  Velocity(au)
C        -0.04020463     0.03453659    -0.08374758     0.00006406     0.00008475    -0.00077279
N        -0.04115993    -0.07308461     1.38053415    -0.00008563    -0.00004967     0.00074242
H         0.94900386    -0.06918990    -0.55978640     0.00019485    -0.00018513    -0.00031906
H         0.85946338    -0.05350422     1.95118720     0.00054815     0.00002638     0.00044319
H        -0.94660800    -0.01059450     1.84754671     0.00077126    -0.00014020    -0.00034442
H        -1.02374609     0.06758121    -0.53335070    -0.00108763    -0.00002081    -0.00088799
     6
  Step:    19            Position(A)                                  Velocity(au)
C        -0.03983424     0.03500034    -0.08801844     0.00006808     0.00008192    -0.00076151
N        -0.04159991    -0.07336029     1.38465282    -0.00007144    -0.00004939     0.00073643
H         0.94999897    -0.07015860    -0.56159173     0.00016410    -0.00016320    -0.00033014
H         0.86214593    -0.05338182     1.95338821     0.00041474     0.00001717     0.00034826
H        -0.94252890    -0.01132370     1.84580973     0.00068168    -0.00012090    -0.00027297
H        -1.02980242     0.06746155    -0.53835206    -0.00107903    -0.00002295    -0.00090454
     6
  Step:    20            Position(A)                                  Velocity(au)
C        -0.03944701     0.03544831    -0.09222230     0.00007021     0.00007915    -0.00074940
N        -0.04195494    -0.07363425     1.38872968    -0.00005538    -0.00004909     0.00072808
H         0.95083012    -0.07100616    -0.56346049     0.00013620    -0.00014169    -0.00034216
H         0.86407888    -0.05331309     1.95506286     0.00028056     0.00000713     0.00025517
H        -0.93902178    -0.01193997     1.84450893     0.00056787    -0.00009977    -0.00018883
H        -1.03575436     0.06732578    -0.54341714    -0.00105167    -0.00002658    -0.00091197
     6
  Step:    21            Position(A)                                  Velocity(au)
C        -0.03905322     0.03588079    -0.09635503     0.00007051     0.00007637    -0.00073613
N        -0.04221597    -0.07390640     1.39275227    -0.00003792    -0.00004875     0.00071715
H         0.95151408    -0.07173479    -0.56539804     0.00011132    -0.00012044    -0.00035495
H         0.86526697    -0.05330248     1.95622681     0.00014848    -0.00000369     0.00016555
H        -0.93621168    -0.01243359     1.84370909     0.00043335    -0.00007693    -0.00009412
H        -1.04150162     0.06716592    -0.54849714    -0.00100647    -0.00003157    -0.00091047
     6
  Step:    22            Position(A)                                  Velocity(au)
C        -0.03866268     0.03629782    -0.10041073     0.00006910     0.00007358    -0.00072162
N        -0.04237671    -0.07417648     1.39670698    -0.00001961    -0.00004834     0.00070366
H         0.95206836    -0.07234590    -0.56740880     0.00008962    -0.00009938    -0.00036841
H         0.86573052    -0.05335419     1.95690438     0.00002150    -0.00001525     0.00008109
H        -0.93420135    -0.01279569     1.84346195     0.00028289    -0.00005261     0.00000845
H        -1.04694997     0.06697456    -0.55354482    -0.00094497    -0.00003785    -0.00090061
     6
  Step:    23            Position(A)                                  Velocity(au)
C        -0.03828448     0.03669936    -0.10438293     0.00006613     0.00007077    -0.00070590
N        -0.04243410    -0.07444414     1.40058041    -0.00000107    -0.00004785     0.00068781
H         0.95251113    -0.07284036    -0.56949651     0.00007122    -0.00007843    -0.00038245
H         0.86550610    -0.05347212     1.95712896    -0.00009745    -0.00002748     0.00000344
H        -0.93306457    -0.01301882     1.84380311     0.00012220    -0.00002710     0.00011577
H        -1.05201432     0.06674481    -0.55851638    -0.00086911    -0.00004533    -0.00088324
     6
  Step:    24            Position(A)                                  Velocity(au)
C        -0.03792682     0.03708531    -0.10826536     0.00006178     0.00006795    -0.00068909
N        -0.04238864    -0.07470895     1.40436031     0.00001704    -0.00004729     0.00066989
H         0.95286086    -0.07321859    -0.57166437     0.00005614    -0.00005753    -0.00039701
H         0.86464619    -0.05365992     1.95694268    -0.00020556    -0.00004034    -0.00006588
H        -0.93284158    -0.01309729     1.84475009    -0.00004244    -0.00000076     0.00022449
H        -1.05662071     0.06647022    -0.56337276    -0.00078109    -0.00005392    -0.00085933
     6
  Step:    25            Position(A)                                  Velocity(au)
C        -0.03759687     0.03745560    -0.11205230     0.00005625     0.00006512    -0.00067134
N        -0.04224449    -0.07497043     1.40803604     0.00003407    -0.00004663     0.00065023
H         0.95313598    -0.07348062    -0.57391509     0.00004434    -0.00003659    -0.00041201
H         0.86321830    -0.05392105     1.95639571    -0.00030028    -0.00005381    -0.00012553
H        -0.93353691    -0.01302729     1.84630166    -0.00020463     0.00002609     0.00033132
H        -1.06070760     0.06614467    -0.56808046    -0.00068322    -0.00006360    -0.00082995
     6
  Step:    26            Position(A)                                  Velocity(au)
C        -0.03730065     0.03781020    -0.11573880     0.00004974     0.00006228    -0.00065280
N        -0.04200931    -0.07522807     1.41159882     0.00004944    -0.00004588     0.00062920
H         0.95335441    -0.07362590    -0.57625093     0.00003567    -0.00001550    -0.00042738
H         0.86130345    -0.05425894     1.95554526    -0.00037937    -0.00006791    -0.00017437
H        -0.93511954    -0.01280686     1.84843837    -0.00035820     0.00005314     0.00043311
H        -1.06422645     0.06576226    -0.57261196    -0.00057786    -0.00007432    -0.00079623
     6
  Step:    27            Position(A)                                  Velocity(au)
C        -0.03704305     0.03814909    -0.11932073     0.00004247     0.00005946    -0.00063362
N        -0.04169401    -0.07548129     1.41504177     0.00006260    -0.00004503     0.00060713
H         0.95353318    -0.07365319    -0.57867366     0.00002997     0.00000588    -0.00044304
H         0.85899430    -0.05467716     1.95445427    -0.00044098    -0.00008268    -0.00021150
H        -0.93752520    -0.01243559     1.85112406    -0.00049758     0.00008016     0.00052712
H        -1.06714168     0.06531712    -0.57694587    -0.00046730    -0.00008612    -0.00075925
     6
  Step:    28            Position(A)                                  Velocity(au)
C        -0.03682777     0.03847232    -0.12279471     0.00003463     0.00005665    -0.00061394
N        -0.04131225    -0.07572952     1.41835977     0.00007310    -0.00004407     0.00058433
H         0.95368810    -0.07356038    -0.58118459     0.00002698     0.00002774    -0.00045893
H         0.85639280    -0.05517967     1.95319001    -0.00048369    -0.00009823    -0.00023632
H        -0.94066055    -0.01191422     1.85430828    -0.00061809     0.00010699     0.00061105
H        -1.06943024     0.06480323    -0.58106685    -0.00035373    -0.00009904    -0.00072009
     6
  Step:    29            Position(A)                                  Velocity(au)
C        -0.03665740     0.03877996    -0.12615802     0.00002643     0.00005385    -0.00059383
N        -0.04087986    -0.07597214     1.42154928     0.00008063    -0.00004301     0.00056102
H         0.95383362    -0.07334424    -0.58378461     0.00002645     0.00005030    -0.00047496
H         0.85360752    -0.05577109     1.95182246    -0.00050660    -0.00011470    -0.00024849
H        -0.94440869    -0.01124411     1.85792924    -0.00071607     0.00013358     0.00068319
H        -1.07108108     0.06421412    -0.58496541    -0.00023922    -0.00011319    -0.00067979
     6
  Step:    30            Position(A)                                  Velocity(au)
C        -0.03653346     0.03907208    -0.12940823     0.00001805     0.00005107    -0.00057331
N        -0.04041421    -0.07620853     1.42460791     0.00008498    -0.00004184     0.00053738
H         0.95398268    -0.07300020    -0.58647427     0.00002812     0.00007383    -0.00049111
H         0.85075075    -0.05645712     1.95042260    -0.00050932    -0.00013235    -0.00024799
H        -0.94863554    -0.01042654     1.86191705    -0.00078908     0.00016003     0.00074241
H        -1.07209444     0.06354260    -0.58863775    -0.00012572    -0.00012875    -0.00063934
     6
  Step:    31            Position(A)                                  Velocity(au)
C        -0.03645642     0.03934875    -0.13254284     0.00000966     0.00004831    -0.00055235
N        -0.03993344    -0.07643804     1.42753397     0.00008607    -0.00004055     0.00051351
H         0.95414679    -0.07252199    -0.58925399     0.00003176     0.00009869    -0.00050739
H         0.84793533    -0.05724501     1.94906062    -0.00049204    -0.00015150    -0.00023514
H        -0.95319649    -0.00946189     1.86619719    -0.00083582     0.00018659     0.00078815
H        -1.07248116     0.06278029    -0.59208561    -0.00001505    -0.00014597    -0.00059974
     6
  Step:    32            Position(A)                                  Velocity(au)
C        -0.03642585     0.03961001    -0.13555899     0.00000143     0.00004555    -0.00053085
N        -0.03945582    -0.07666003     1.43032619     0.00008392    -0.00003914     0.00048945
H         0.95433635    -0.07190125    -0.59212438     0.00003722     0.00012529    -0.00052389
H         0.84527157    -0.05814413     1.94780421    -0.00045551    -0.00017261    -0.00021052
H        -0.95794292    -0.00834870     1.87069361    -0.00085609     0.00021370     0.00082043
H        -1.07226203     0.06191709    -0.59531621     0.00009105    -0.00016526    -0.00056197
     6
  Step:    33            Position(A)                                  Velocity(au)
C        -0.03644046     0.03985591    -0.13845317    -0.00000650     0.00004281    -0.00050867
N        -0.03899907    -0.07687383     1.43298340     0.00007871    -0.00003762     0.00046521
H         0.95456119    -0.07112701    -0.59508683     0.00004450     0.00015418    -0.00054084
H         0.84286382    -0.05916680     1.94671670    -0.00040108    -0.00019632    -0.00017509
H        -0.96272792    -0.00708256     1.87533156    -0.00085061     0.00024203     0.00083966
H        -1.07146738     0.06094035    -0.59834245     0.00019091    -0.00018716    -0.00052711
     6
  Step:    34            Position(A)                                  Velocity(au)
C        -0.03649821     0.04008651    -0.14122098    -0.00001402     0.00004008    -0.00048550
N        -0.03857974    -0.07707882     1.43550443     0.00007066    -0.00003599     0.00044067
H         0.95483163    -0.07018505    -0.59814452     0.00005384     0.00018602    -0.00055872
H         0.84080709    -0.06032936     1.94585532    -0.00033070    -0.00022348    -0.00013004
H        -0.96741107    -0.00565467     1.88003996    -0.00082089     0.00027252     0.00084670
H        -1.07013696     0.05983381    -0.60118352     0.00028279    -0.00021248    -0.00049641
     6
  Step:    35            Position(A)                                  Velocity(au)
C        -0.03659644     0.04030188    -0.14385567    -0.00002102     0.00003736    -0.00046069
N        -0.03821274    -0.07727434     1.43788706     0.00006014    -0.00003424     0.00041549
H         0.95516032    -0.06905703    -0.60130412     0.00006600     0.00022162    -0.00057848
H         0.83918387    -0.06165356     1.94526967    -0.00024683    -0.00025521    -0.00007683
H        -0.97186251    -0.00405005     1.88475332    -0.00076910     0.00030651     0.00084267
H        -1.06832058     0.05857597    -0.60386627     0.00036471    -0.00024237    -0.00047151
     6
  Step:    36            Position(A)                                  Velocity(au)
C        -0.03673202     0.04050213    -0.14634548    -0.00002744     0.00003467    -0.00043285
N        -0.03791081    -0.07745966     1.44012612     0.00004754    -0.00003233     0.00038879
H         0.95556576    -0.06771986    -0.60457922     0.00008260     0.00026177    -0.00060195
H         0.83806152    -0.06316821     1.94500073    -0.00015233    -0.00029288    -0.00001701
H        -0.97596616    -0.00224527     1.88941333    -0.00069791     0.00034568     0.00082895
H        -1.06608013     0.05713785    -0.60642830     0.00043404    -0.00027839    -0.00045492
     6
  Step:    37            Position(A)                                  Velocity(au)
C        -0.03690157     0.04068738    -0.14866833    -0.00003326     0.00003201    -0.00039922
N        -0.03768418    -0.07763384     1.44220987     0.00003336    -0.00003022     0.00035877
H         0.95607868    -0.06614646    -0.60799697     0.00010682     0.00030654    -0.00063266
H         0.83749018    -0.06491003     1.94508059    -0.00005041    -0.00033749     0.00004792
H        -0.97962230    -0.00020655     1.89397008    -0.00061052     0.00039163     0.00080714
H        -1.06349459     0.05548065    -0.60892437     0.00048683    -0.00032222    -0.00045084
     6
  Step:    38            Position(A)                                  Velocity(au)
C        -0.03710161     0.04085785    -0.15078215    -0.00004548     0.00003481    -0.00042039
N        -0.03754010    -0.07779545     1.44411323     0.00002151    -0.00003286     0.00038146
H         0.95675286    -0.06431318    -0.61161018     0.00016984     0.00041761    -0.00080020
H         0.83750128    -0.06691881     1.94553331     0.00006559    -0.00045832     0.00013800
H        -0.98275097     0.00210703     1.89838330    -0.00060444     0.00052480     0.00092167
H        -1.06066983     0.05355694    -0.61143860     0.00061203    -0.00044223    -0.00055097
     6
  Step:    39            Position(A)                                  Velocity(au)
C        -0.03735988     0.04104694    -0.15296154    -0.00004693     0.00003317    -0.00037561
N        -0.03746055    -0.07797038     1.44610680     0.00000656    -0.00003038     0.00034446
H         0.95776316    -0.06223888    -0.61619387     0.00017876     0.00033885    -0.00083401
H         0.83815261    -0.06921334     1.94649408     0.00016728    -0.00037446     0.00020522
H        -0.98585479     0.00476975     1.90340328    -0.00050432     0.00043805     0.00088140
H        -1.05725560     0.05129224    -0.61456921     0.00062635    -0.00037556    -0.00056349
     6
  Step:    40            Position(A)                                  Velocity(au)
C        -0.03762280     0.04122624    -0.15495349    -0.00004728     0.00003129    -0.00034926
N        -0.03746725    -0.07813282     1.44793860    -0.00000931    -0.00002829     0.00032081
H         0.95873811    -0.06055011    -0.62087230     0.00016282     0.00028265    -0.00084030
H         0.83935896    -0.07107740     1.94781234     0.00026426    -0.00030865     0.00026658
H        -0.98835167     0.00697180     1.90817163    -0.00038795     0.00036520     0.00083298
H        -1.05371391     0.04938618    -0.61769647     0.00065356    -0.00031898    -0.00055548
     6
  Step:    41            Position(A)                                  Velocity(au)
C        -0.03788472     0.04139428    -0.15683866    -0.00004663     0.00002919    -0.00033323
N        -0.03756384    -0.07828437     1.44966805    -0.00002551    -0.00002639     0.00030501
H         0.95957057    -0.05910123    -0.62552184     0.00013276     0.00024913    -0.00083017
H         0.84108612    -0.07263964     1.94945335     0.00035383    -0.00026359     0.00032164
H        -0.99016136     0.00882381     1.91265007    -0.00025980     0.00031072     0.00077892
H        -1.05000054     0.04775126    -0.62073547     0.00068338    -0.00027736    -0.00053802
     6
  Step:    42            Position(A)                                  Velocity(au)
C        -0.03814019     0.04155011    -0.15865092    -0.00004499     0.00002696    -0.00032149
N        -0.03775033    -0.07842562     1.45132282    -0.00004146    -0.00002457     0.00029296
H         0.96021120    -0.05778585    -0.63008348     0.00009588     0.00023113    -0.00081197
H         0.84328492    -0.07400211     1.95138110     0.00043334    -0.00023362     0.00036985
H        -0.99123435     0.01041941     1.91681422    -0.00012495     0.00027022     0.00072138
H        -1.04613137     0.04630868    -0.62366606     0.00070798    -0.00024763    -0.00051944
     6
  Step:    43            Position(A)                                  Velocity(au)
C        -0.03838366     0.04169328    -0.16040398    -0.00004235     0.00002468    -0.00031153
N        -0.03802365    -0.07855681     1.45291697    -0.00005666    -0.00002278     0.00028297
H         0.96063394    -0.05653802    -0.63452668     0.00005512     0.00022282    -0.00078926
H         0.84589195    -0.07523048     1.95355509     0.00050043    -0.00021336     0.00041033
H        -0.99154711     0.01182054     1.92065023     0.00001238     0.00023899     0.00066207
H        -1.04214898     0.04500502    -0.62649616     0.00072400    -0.00022589    -0.00050320
     6
  Step:    44            Position(A)                                  Velocity(au)
C        -0.03860958     0.04182365    -0.16210415    -0.00003871     0.00002238    -0.00030244
N        -0.03837835    -0.07867816     1.45445949    -0.00007071    -0.00002105     0.00027441
H         0.96082220    -0.05531600    -0.63883213     0.00001183     0.00022078    -0.00076353
H         0.84883196    -0.07636717     1.95592952     0.00055319    -0.00019951     0.00044220
H        -0.99109716     0.01306852     1.92415299     0.00014866     0.00021413     0.00060249
H        -1.03810604     0.04380476    -0.62924387     0.00073021    -0.00020955    -0.00049056
     6