     6
  Step:     0            Position(A)                                  Velocity(au)
C        -0.03547998     0.02272099     0.02905030    -0.00000023    -0.00009932    -0.00010371
N        -0.05062376    -0.06767623     1.28719088    -0.00007599     0.00006581     0.00013010
H         0.91857712    -0.00092095    -0.49425687     0.00042376     0.00044776    -0.00000509
H         0.84945738    -0.07690583     1.86475815     0.00107525    -0.00032112     0.00010122
H        -0.84865953     0.01938520     1.84708576    -0.00000255    -0.00018000    -0.00018881
H        -1.00604523     0.05837210    -0.55896788    -0.00043770     0.00032235    -0.00047942
     6
  Step:     1            Position(A)                                  Velocity(au)
C        -0.03549738     0.02219860     0.02828624    -0.00000609    -0.00009195    -0.00017529
N        -0.05097894    -0.06734205     1.28807561    -0.00005335     0.00005656     0.00019300
H         0.92107254     0.00153051    -0.49458871     0.00048559     0.00044959    -0.00011453
H         0.85504159    -0.07864357     1.86512367     0.00095979    -0.00031460     0.00002847
H        -0.84932356     0.01851475     1.84654245    -0.00024139    -0.00013858    -0.00000831
H        -1.00831758     0.06010981    -0.56164822    -0.00039001     0.00031335    -0.00049879
     6
  Step:     2            Position(A)                                  Velocity(au)
C        -0.03554660     0.02171567     0.02713378    -0.00001186    -0.00008505    -0.00024584
N        -0.05120702    -0.06705788     1.28930097    -0.00002990     0.00004764     0.00025493
H         0.92388611     0.00399451    -0.49550901     0.00054060     0.00045310    -0.00022032
H         0.85995088    -0.08034542     1.86506937     0.00083134    -0.00030852    -0.00005123
H        -0.85129870     0.01787010     1.84699492    -0.00047915    -0.00009796     0.00017291
H        -1.01030924     0.06179798    -0.56442127    -0.00033597     0.00030475    -0.00051450
     6
  Step:     3            Position(A)                                  Velocity(au)
C        -0.03562689     0.02126955     0.02560075    -0.00001746    -0.00007859    -0.00031464
N        -0.05130557    -0.06682160     1.29086039    -0.00000628     0.00003911     0.00031548
H         0.92697788     0.00648008    -0.49699543     0.00058773     0.00045800    -0.00032181
H         0.86412292    -0.08201379     1.86456404     0.00069221    -0.00030271    -0.00013565
H        -0.85455765     0.01744469     1.84843124    -0.00070850    -0.00005874     0.00034954
H        -1.01198763     0.06343883    -0.56726843    -0.00027601     0.00029637    -0.00052682
     6
  Step:     4            Position(A)                                  Velocity(au)
C        -0.03573726     0.02085770     0.02369873    -0.00002286    -0.00007253    -0.00038081
N        -0.05127559    -0.06663085     1.29274517     0.00001686     0.00003101     0.00037406
H         0.93030261     0.00899461    -0.49902230     0.00062586     0.00046384    -0.00041814
H         0.86750794    -0.08365017     1.86358842     0.00054475    -0.00029693    -0.00022244
H        -0.85903362     0.01722879     1.85081101    -0.00092183    -0.00002154     0.00051617
H        -1.01332257     0.06503356    -0.57017273    -0.00021062     0.00028796    -0.00053590
     6
  Step:     5            Position(A)                                  Velocity(au)
C        -0.03587642     0.02047781     0.02144400    -0.00002797    -0.00006684    -0.00044326
N        -0.05112155    -0.06648306     1.29494345     0.00003885     0.00002339     0.00042987
H         0.93380947     0.01154308    -0.50155966     0.00065382     0.00047006    -0.00050826
H         0.87006917    -0.08525491     1.86213599     0.00039166    -0.00029094    -0.00030901
H        -0.86461991     0.01720960     1.85406554    -0.00111155     0.00001305     0.00066743
H        -1.01428668     0.06658201    -0.57311806    -0.00014046     0.00027923    -0.00054178
     6
  Step:     6            Position(A)                                  Velocity(au)
C        -0.03604271     0.02012784     0.01885862    -0.00003272    -0.00006147    -0.00050071
N        -0.05085136    -0.06637540     1.29743899     0.00005903     0.00001631     0.00048185
H         0.93744188     0.01412737    -0.50457209     0.00067050     0.00047602    -0.00059085
H         0.87178453    -0.08682705     1.86021427     0.00023608    -0.00028449    -0.00039248
H        -0.87117093     0.01737132     1.85809885    -0.00127043     0.00004444     0.00079824
H        -1.01485632     0.06808252    -0.57608853    -0.00006645     0.00026989    -0.00054439
     6
  Step:     7            Position(A)                                  Velocity(au)
C        -0.03623407     0.01980596     0.01597147    -0.00003701    -0.00005639    -0.00055172
N        -0.05047640    -0.06630480     1.30020985     0.00007673     0.00000982     0.00052877
H         0.94113771     0.01674572    -0.50801743     0.00067491     0.00048096    -0.00066445
H         0.87264940    -0.08836427     1.85784640     0.00008181    -0.00027733    -0.00046968
H        -0.87850514     0.01769532     1.86278996    -0.00139211     0.00007208     0.00090416
H        -1.01501298     0.06953181    -0.57906796     0.00001016     0.00025967    -0.00054364
     6
  Step:     8            Position(A)                                  Velocity(au)
C        -0.03644791     0.01951059     0.01281900    -0.00004075    -0.00005155    -0.00059482
N        -0.05001135    -0.06626785     1.30322734     0.00009137     0.00000400     0.00056925
H         0.94483012     0.01939236    -0.51184577     0.00066641     0.00048413    -0.00072749
H         0.87268009    -0.08986298     1.85507268    -0.00006674    -0.00026927    -0.00053729
H        -0.88641030     0.01816043     1.86799658    -0.00147164     0.00009552     0.00098168
H        -1.01474512     0.07092508    -0.58203975     0.00008776     0.00024832    -0.00053950
     6
  Step:     9            Position(A)                                  Velocity(au)
C        -0.03668111     0.01924032     0.00944542    -0.00004381    -0.00004696    -0.00062865
N        -0.04947389    -0.06626087     1.30645536     0.00010244    -0.00000109     0.00060195
H         0.94844917     0.02205736    -0.51599907     0.00064474     0.00048484    -0.00077851
H         0.87191720    -0.09131860     1.85195151    -0.00020467    -0.00026020    -0.00059199
H        -0.89465124     0.01874330     1.87356039    -0.00150594     0.00011440     0.00102856
H        -1.01405008     0.07225626    -0.58498704     0.00016444     0.00023570    -0.00053200
     6
  Step:    10            Position(A)                                  Velocity(au)
C        -0.03692996     0.01899388     0.00590206    -0.00004612    -0.00004260    -0.00065212
N        -0.04888423    -0.06627985     1.30985054     0.00010956    -0.00000541     0.00062570
H         0.95192410     0.02472703    -0.52041158     0.00061025     0.00048253    -0.00081633
H         0.87042810    -0.09272595     1.84855915    -0.00032696    -0.00025011    -0.00063076
H        -0.90297998     0.01941912     1.87931367    -0.00149428     0.00012854     0.00104412
H        -1.01293583     0.07351848    -0.58789326     0.00023804     0.00022177    -0.00052136
     6
  Step:    11            Position(A)                                  Velocity(au)
C        -0.03719023     0.01877003     0.00224593    -0.00004759    -0.00003848    -0.00066460
N        -0.04826433    -0.06632055     1.31336323     0.00011256    -0.00000891     0.00063971
H         0.95518639     0.02738459    -0.52501147     0.00056393     0.00047686    -0.00084031
H         0.86830750    -0.09407986     1.84498786    -0.00042888    -0.00023912    -0.00065126
H        -0.91114824     0.02016239     1.88508760    -0.00143849     0.00013797     0.00102939
H        -1.01142206     0.07470463    -0.59074294     0.00030640     0.00020661    -0.00050801
     6
  Step:    12            Position(A)                                  Velocity(au)
C        -0.03745731     0.01856749    -0.00146284    -0.00004820    -0.00003462    -0.00066609
N        -0.04763692    -0.06637858     1.31693959     0.00011146    -0.00001160     0.00064372
H         0.95817341     0.03001148    -0.52972371     0.00050746     0.00046781    -0.00085056
H         0.86567537    -0.09537583     1.84134211    -0.00050657    -0.00022750    -0.00065212
H        -0.91892096     0.02094805     1.89072110    -0.00134300     0.00014294     0.00098713
H        -1.00954036     0.07580806    -0.59352291     0.00036756     0.00019045    -0.00049264
     6
  Step:    13            Position(A)                                  Velocity(au)
C        -0.03772642     0.01838489    -0.00516446    -0.00004796    -0.00003106    -0.00065736
N        -0.04702432    -0.06644958     1.32052475     0.00010653    -0.00001350     0.00063822
H         0.96083201     0.03258905    -0.53447412     0.00044311     0.00045574    -0.00084809
H         0.86267178    -0.09661082     1.83773294    -0.00055757    -0.00021565    -0.00063321
H        -0.92608938     0.02175261     1.89606959    -0.00121446     0.00014394     0.00092165
H        -1.00733291     0.07682343    -0.59622366     0.00042004     0.00017366    -0.00047622
     6
  Step:    14            Position(A)                                  Velocity(au)
C        -0.03799288     0.01822069    -0.00880355    -0.00004696    -0.00002783    -0.00063990
N        -0.04644728    -0.06652935     1.32406662     0.00009824    -0.00001468     0.00062442
H         0.96312160     0.03510069    -0.53919429     0.00037348     0.00044140    -0.00083484
H         0.85944894    -0.09778399     1.83427105    -0.00058118    -0.00020410    -0.00059571
H        -0.93248276     0.02255539     1.90101312    -0.00106106     0.00014167     0.00083841
H        -1.00484979     0.07774735    -0.59884081     0.00046310     0.00015671    -0.00045996
     6
  Step:    15            Position(A)                                  Velocity(au)
C        -0.03825245     0.01807310    -0.01233309    -0.00004530    -0.00002499    -0.00061580
N        -0.04592374    -0.06661405     1.32751997     0.00008720    -0.00001524     0.00060414
H         0.96501597     0.03753393    -0.54382664     0.00030118     0.00042586    -0.00081354
H         0.85616099    -0.09889732     1.83105939    -0.00057851    -0.00019344    -0.00054187
H        -0.93797610     0.02333966     1.90546206    -0.00089146     0.00013697     0.00074335
H        -1.00214491     0.07857898    -0.60137651     0.00049684     0.00014009    -0.00044528
     6
  Step:    16            Position(A)                                  Velocity(au)
C        -0.03850154     0.01794014    -0.01571763    -0.00004315    -0.00002255    -0.00058741
N        -0.04546818    -0.06670041     1.33084970     0.00007407    -0.00001528     0.00057950
H         0.96650318     0.03988217    -0.54832853     0.00022846     0.00041034    -0.00078726
H         0.85295363    -0.09995594     1.82818711    -0.00055211    -0.00018425    -0.00047454
H        -0.94249188     0.02409330     1.90935921    -0.00071359     0.00013075     0.00064206
H        -0.99927134     0.07932020    -0.60384031     0.00052211     0.00012425    -0.00043358
     6
  Step:    17            Position(A)                                  Velocity(au)
C        -0.03873736     0.01781964    -0.01893464    -0.00004062    -0.00002055    -0.00055690
N        -0.04509132    -0.06678578     1.33403261     0.00005944    -0.00001493     0.00055255
H         0.96758347     0.04214552    -0.55267420     0.00015689     0.00039598    -0.00075893
H         0.84995619    -0.10096800     1.82572631    -0.00050528    -0.00017699    -0.00039658
H        -0.94599574     0.02480907     1.91267782    -0.00053369     0.00012382     0.00053917
H        -0.99627723     0.07997532    -0.60624929     0.00054018     0.00010951    -0.00042613
     6
  Step:    18            Position(A)                                  Velocity(au)
C        -0.03895789     0.01770934    -0.02197346    -0.00003784    -0.00001896    -0.00052592
N        -0.04480046    -0.06686814     1.33705673     0.00004379    -0.00001429     0.00052488
H         0.96826557     0.04433032    -0.55685383     0.00008731     0.00038363    -0.00073085
H         0.84727761    -0.10194414     1.82373219    -0.00044141    -0.00017197    -0.00031037
H        -0.94848699     0.02548420     1.91541594    -0.00035592     0.00011686     0.00043794
H        -0.99320329     0.08055039    -0.60862714     0.00055237     0.00009603    -0.00042384
     6
  Step:    19            Position(A)                                  Velocity(au)
C        -0.03916168     0.01760701    -0.02483246    -0.00003353    -0.00001481    -0.00054376
N        -0.04460022    -0.06694606     1.33991885     0.00002728    -0.00001612     0.00053525
H         0.96856255     0.04644766    -0.56087021    -0.00001348     0.00041765    -0.00066458
H         0.84500607    -0.10289656     1.82224564    -0.00038422    -0.00021452    -0.00023090
H        -0.94998721     0.02611959     1.91758903    -0.00016268     0.00015797     0.00032662
H        -0.99008275     0.08105228    -0.61100238     0.00058089     0.00003949    -0.00038964
     6
  Step:    20            Position(A)                                  Velocity(au)
C        -0.03933304     0.01754361    -0.02805693    -0.00002745    -0.00000805    -0.00061142
N        -0.04449527    -0.06704853     1.34304494     0.00001006    -0.00002046     0.00058473
H         0.96811476     0.04900286    -0.56428900    -0.00014605     0.00048628    -0.00056097
H         0.84297906    -0.10434411     1.82114899    -0.00033640    -0.00029194    -0.00016110
H        -0.95030705     0.02725158     1.91907005     0.00004473     0.00023510     0.00020445
H        -0.98670442     0.08099218    -0.61298631     0.00062496    -0.00004926    -0.00032229
     6
  Step:    21            Position(A)                                  Velocity(au)
C        -0.03946807     0.01751719    -0.03165728    -0.00002072    -0.00000166    -0.00067834
N        -0.04448788    -0.06717442     1.34644576    -0.00000747    -0.00002453     0.00063373
H         0.96693235     0.05187560    -0.56713191    -0.00027535     0.00053867    -0.00046111
H         0.84125112    -0.10615521     1.82044739    -0.00027793    -0.00035197    -0.00008866
H        -0.94948792     0.02874387     1.91987117     0.00024364     0.00029411     0.00008624
H        -0.98310680     0.08050244    -0.61459991     0.00066036    -0.00012015    -0.00025987
     6
  Step:    22            Position(A)                                  Velocity(au)
C        -0.03956390     0.01752507    -0.03561606    -0.00001347     0.00000424    -0.00074063
N        -0.04457855    -0.06732185     1.35010696    -0.00002495    -0.00002824     0.00067877
H         0.96504638     0.05500564    -0.56942745    -0.00039791     0.00058164    -0.00036599
H         0.83988195    -0.10826632     1.82016100    -0.00020893    -0.00040244    -0.00001234
H        -0.94759201     0.03052904     1.92003106     0.00042992     0.00034312    -0.00002402
H        -0.97934560     0.07965326    -0.61588221     0.00068414    -0.00018046    -0.00020470
     6
  Step:    23            Position(A)                                  Velocity(au)
C        -0.03961806     0.01756445    -0.03990332    -0.00000580     0.00000964    -0.00079613
N        -0.04476564    -0.06748883     1.35400306    -0.00004188    -0.00003156     0.00071798
H         0.96250214     0.05835146    -0.57120679    -0.00051077     0.00061738    -0.00027643
H         0.83892498    -0.11063592     1.82031003    -0.00013114    -0.00044610     0.00006722
H        -0.94470132     0.03256410     1.91960372     0.00059920     0.00038533    -0.00012335
H        -0.97548971     0.07849321    -0.61687894     0.00069393    -0.00023290    -0.00015795
     6
  Step:    24            Position(A)                                  Velocity(au)
C        -0.03962852     0.01763243    -0.04447928     0.00000216     0.00001450    -0.00084310
N        -0.04504484    -0.06767325     1.35810008    -0.00005773    -0.00003449     0.00074990
H         0.95936002     0.06187887    -0.57250491    -0.00061085     0.00064686    -0.00019349
H         0.83842204    -0.11323265     1.82090933    -0.00004720    -0.00048412     0.00014854
H        -0.94092116     0.03481889     1.91865782     0.00074671     0.00042254    -0.00020886
H        -0.97162015     0.07706042    -0.61764060     0.00068776    -0.00027877    -0.00012054
     6
  Step:    25            Position(A)                                  Velocity(au)
C        -0.03959394     0.01772596    -0.04929576     0.00001028     0.00001877    -0.00088020
N        -0.04540873    -0.06787305     1.36235713    -0.00007187    -0.00003702     0.00077347
H         0.95569704     0.06555772    -0.57336233    -0.00069512     0.00067057    -0.00011845
H         0.83839916    -0.11602913     1.82196480     0.00003950    -0.00051695     0.00022958
H        -0.93638275     0.03727137     1.91727697     0.00086763     0.00045590    -0.00027777
H        -0.96782782     0.07538758    -0.61822177     0.00066433    -0.00031877    -0.00009316
     6
  Step:    26            Position(A)                                  Velocity(au)
C        -0.03951387     0.01784185    -0.05429787     0.00001834     0.00002244    -0.00090657
N        -0.04584659    -0.06808621     1.36672802    -0.00008374    -0.00003918     0.00078806
H         0.95160606     0.06935903    -0.57382620    -0.00076089     0.00068884    -0.00005266
H         0.83886263    -0.11899914     1.82347032     0.00012513    -0.00054475     0.00030803
H        -0.93124279     0.03990440     1.91555930     0.00095769     0.00048626    -0.00032766
H        -0.96420961     0.07350454    -0.61867981     0.00062321    -0.00035331    -0.00007620
     6
  Step:    27            Position(A)                                  Velocity(au)
C        -0.03938900     0.01797676    -0.05942648     0.00002613     0.00002549    -0.00092194
N        -0.04634449    -0.06831088     1.37116357    -0.00009280    -0.00004101     0.00079359
H         0.94719426     0.07325535    -0.57395076    -0.00080611     0.00070215     0.00000264
H         0.83979743    -0.12211663     1.82540691     0.00020583    -0.00056767     0.00038158
H        -0.92568077     0.04270516     1.91361547     0.00101362     0.00051444    -0.00035672
H        -0.96086360     0.07143939    -0.61907331     0.00056493    -0.00038276    -0.00006966
     6
  Step:    28            Position(A)                                  Velocity(au)
C        -0.03922127     0.01812729    -0.06462148     0.00003343     0.00002793    -0.00092672
N        -0.04688578    -0.06854546     1.37561443    -0.00009870    -0.00004259     0.00079051
H         0.94257953     0.07722152    -0.57379664    -0.00082957     0.00071121     0.00004647
H         0.84116750    -0.12535570     1.82774311     0.00027813    -0.00058593     0.00044829
H        -0.91989264     0.04566496     1.91156490     0.00103368     0.00054132    -0.00036404
H        -0.95788368     0.06921855    -0.61945989     0.00049099    -0.00040755    -0.00007313
     6
  Step:    29            Position(A)                                  Velocity(au)
C        -0.03901390     0.01829013    -0.06982525     0.00004002     0.00002978    -0.00092190
N        -0.04745199    -0.06878876     1.38003396    -0.00010123    -0.00004400     0.00077977
H         0.93788551     0.08123590    -0.57342929    -0.00083108     0.00071697     0.00007827
H         0.84291832    -0.12869136     1.83043717     0.00033919    -0.00059995     0.00050672
H        -0.91408175     0.04877934     1.90953050     0.00101794     0.00056783    -0.00034974
H        -0.95535411     0.06686618    -0.61989389     0.00040372    -0.00042832    -0.00008576
     6
  Step:    30            Position(A)                                  Velocity(au)
C        -0.03877129     0.01846208    -0.07498598     0.00004574     0.00003110    -0.00090900
N        -0.04802382    -0.06904008     1.38438100    -0.00010038    -0.00004533     0.00076271
H         0.93323617     0.08528207    -0.57291671    -0.00081130     0.00072062     0.00009791
H         0.84498080    -0.13210065     1.83343995     0.00038708    -0.00061035     0.00055612
H        -0.90844849     0.05204883     1.90763291     0.00096818     0.00059501    -0.00031490
H        -0.95334490     0.06440321    -0.62042407     0.00030599    -0.00044582    -0.00010638
     6
  Step:    31            Position(A)                                  Velocity(au)
C        -0.03849888     0.01864026    -0.08006027     0.00005044     0.00003194    -0.00088972
N        -0.04858228    -0.06929922     1.38862185    -0.00009634    -0.00004671     0.00074083
H         0.92875051     0.08934981    -0.57232688    -0.00077169     0.00072337     0.00010572
H         0.84727672    -0.13556377     1.83669887     0.00042080    -0.00061783     0.00059631
H        -0.90318034     0.05547892     1.90598480     0.00088767     0.00062377    -0.00026144
H        -0.95190875     0.06184643    -0.62109174     0.00020095    -0.00046090    -0.00013357
     6
  Step:    32            Position(A)                                  Velocity(au)
C        -0.03820282     0.01882212    -0.08501426     0.00005401     0.00003239    -0.00086576
N        -0.04910965    -0.06956651     1.39273116    -0.00008938    -0.00004819     0.00071559
H         0.92453821     0.09343538    -0.57172507    -0.00071414     0.00072638     0.00010240
H         0.84972382    -0.13906443     1.84016121     0.00044018    -0.00062314     0.00062766
H        -0.89844329     0.05907952     1.90468616     0.00078073     0.00065491    -0.00019189
H        -0.95107993     0.05920820    -0.62192961     0.00009170    -0.00047445    -0.00016579
     6
  Step:    33            Position(A)                                  Velocity(au)
C        -0.03788976     0.01900555    -0.08982358     0.00005641     0.00003252    -0.00083865
N        -0.04959025    -0.06984268     1.39669165    -0.00007992    -0.00004985     0.00068826
H         0.92069711     0.09754123    -0.57117210    -0.00064075     0.00073061     0.00008887
H         0.85224069    -0.14259095     1.84377704     0.00044566    -0.00062699     0.00065080
H        -0.89437602     0.06286441     1.90382084     0.00065235     0.00068898    -0.00010922
H        -0.95087465     0.05649596    -0.62296138    -0.00001885    -0.00048728    -0.00020147
     6
  Step:    34            Position(A)                                  Velocity(au)
C        -0.03756669     0.01918882    -0.09447212     0.00005757     0.00003237    -0.00080954
N        -0.05001090    -0.07012873     1.40049309    -0.00006839    -0.00005172     0.00065985
H         0.91731213     0.10167483    -0.57072288    -0.00055372     0.00073674     0.00006623
H         0.85474972    -0.14613529     1.84750059     0.00043806    -0.00062989     0.00066649
H        -0.89108634     0.06684952     1.90345444     0.00050798     0.00072616    -0.00001666
H        -0.95129247     0.05371292    -0.62420172    -0.00012803    -0.00050000    -0.00023908
     6
  Step:    35            Position(A)                                  Velocity(au)
C        -0.03724067     0.01937052    -0.09895025     0.00005751     0.00003201    -0.00077932
N        -0.05036125    -0.07042580     1.40413076    -0.00005529    -0.00005380     0.00063110
H         0.91445453     0.10584718    -0.57042548    -0.00045535     0.00074518     0.00003573
H         0.85717932    -0.14969229     1.85129097     0.00041849    -0.00063222     0.00067553
H        -0.88864906     0.07105107     1.90363303     0.00035334     0.00076628     0.00008236
H        -0.95231800     0.05085898    -0.62565670    -0.00023342    -0.00051309    -0.00027713
     6
  Step:    36            Position(A)                                  Velocity(au)
C        -0.03691871     0.01954954    -0.10325314     0.00005623     0.00003148    -0.00074859
N        -0.05063388    -0.07073494     1.40760400    -0.00004113    -0.00005606     0.00060252
H         0.91218145     0.11007123    -0.57032034    -0.00034807     0.00075608    -0.00000127
H         0.85946510    -0.15325882     1.85511212     0.00038823    -0.00063418     0.00067866
H        -0.88710510     0.07548365     1.90438241     0.00019428     0.00080883     0.00018429
H        -0.95392255     0.04793164    -0.62732434    -0.00033283    -0.00052683    -0.00031427
     6
  Step:    37            Position(A)                                  Velocity(au)
C        -0.03660756     0.01972498    -0.10737925     0.00005378     0.00003080    -0.00071775
N        -0.05082440    -0.07105701     1.41091502    -0.00002644    -0.00005844     0.00057448
H         0.91053527     0.11436052    -0.57043978    -0.00023450     0.00076936    -0.00004330
H         0.86155069    -0.15683303     1.85893261     0.00034866    -0.00063589     0.00067661
H        -0.88646150     0.08015837     1.90570806     0.00003669     0.00085300     0.00028557
H        -0.95606564     0.04492693    -0.62919528    -0.00042428    -0.00054138    -0.00034921
     6
  Step:    38            Position(A)                                  Velocity(au)
C        -0.03631355     0.01989613    -0.11132918     0.00005026     0.00003001    -0.00068709
N        -0.05093140    -0.07139253     1.41406789    -0.00001173    -0.00006088     0.00054721
H         0.90954289     0.11872793    -0.57080753    -0.00011741     0.00078479    -0.00008882
H         0.86338815    -0.16041377     1.86272524     0.00030128    -0.00063742     0.00067006
H        -0.88669224     0.08508149     1.90759563    -0.00011373     0.00089781     0.00038278
H        -0.95869644     0.04184019    -0.63125361    -0.00050601    -0.00055675    -0.00038086
     6
  Step:    39            Position(A)                                  Velocity(au)
C        -0.03604238     0.02006245    -0.11510501     0.00004579     0.00002914    -0.00065679
N        -0.05095635    -0.07174159     1.41706797     0.00000250    -0.00006330     0.00052090
H         0.90921504     0.12318485    -0.57143851     0.00000026     0.00080202    -0.00013626
H         0.86493833    -0.16400028     1.86646687     0.00024764    -0.00063878     0.00065966
H        -0.88774032     0.09025347     1.91001208    -0.00025172     0.00094212     0.00047270
H        -0.96175533     0.03866669    -0.63347775    -0.00057657    -0.00057292    -0.00040828
     6
  Step:    40            Position(A)                                  Velocity(au)
C        -0.03579895     0.02022355    -0.11870983     0.00004053     0.00002820    -0.00062702
N        -0.05090334    -0.07210384     1.41992141     0.00001580    -0.00006560     0.00049565
H         0.90954585     0.12774052    -0.57233874     0.00011554     0.00082061    -0.00018403
H         0.86617103    -0.16759204     1.87013815     0.00018935    -0.00064001     0.00064609
H        -0.88952088     0.09566847     1.91290760    -0.00037263     0.00098481     0.00055256
H        -0.96517556     0.03540211    -0.63584157    -0.00063479    -0.00058976    -0.00043072
     6
  Step:    41            Position(A)                                  Velocity(au)
C        -0.03558719     0.02037918    -0.12214746     0.00003465     0.00002723    -0.00059789
N        -0.05077886    -0.07247844     1.42263489     0.00002779    -0.00006772     0.00047154
H         0.91051278     0.13240160    -0.57350548     0.00022548     0.00084008    -0.00023061
H         0.86706505    -0.17118868     1.87372350     0.00012800    -0.00064115     0.00062999
H        -0.89192556     0.10131444     1.91621827    -0.00047271     0.00102479     0.00062009
H        -0.96888506     0.03204274    -0.63831543    -0.00067988    -0.00060715    -0.00044767
     6
  Step:    42            Position(A)                                  Velocity(au)
C        -0.03540996     0.02052926    -0.12542230     0.00002835     0.00002625    -0.00056953
N        -0.05059130    -0.07286411     1.42521536     0.00003816    -0.00006957     0.00044863
H         0.91207728     0.13717200    -0.57492773     0.00032730     0.00085996    -0.00027457
H         0.86760808    -0.17479012     1.87721098     0.00006516    -0.00064225     0.00061203
H        -0.89482789     0.10717362     1.91986924    -0.00054920     0.00106113     0.00067362
H        -0.97280848     0.02858574    -0.64086745    -0.00071141    -0.00062493    -0.00045881
     6
  Step:    43            Position(A)                                  Velocity(au)
C        -0.03526896     0.02067383    -0.12853931     0.00002185     0.00002530    -0.00054204
N        -0.05035060    -0.07325920     1.42766984     0.00004667    -0.00007109     0.00042693
H         0.91418611     0.14205288    -0.57658699     0.00041855     0.00087977    -0.00031468
H         0.86779638    -0.17839668     1.88059229     0.00000234    -0.00064343     0.00059285
H        -0.89808925     0.11322352     1.92377832    -0.00060047     0.00109311     0.00071217
H        -0.97686921     0.02502915    -0.64346463    -0.00072934    -0.00064297    -0.00046406
     6
  Step:    44            Position(A)                                  Velocity(au)
C        -0.03516479     0.02081309    -0.13150390     0.00001534     0.00002439    -0.00051553
N        -0.05006767    -0.07366176     1.43000537     0.00005319    -0.00007225     0.00040644
H         0.91677329     0.14704284    -0.57845837     0.00049716     0.00089913    -0.00034991
H         0.86763432    -0.18200923     1.88386267    -0.00005908    -0.00064481     0.00057311
H        -0.90156504     0.11943808     1.92785964    -0.00062597     0.00112025     0.00073541
H        -0.98099148     0.02137179    -0.64607406    -0.00073399    -0.00066115    -0.00046353
     6