|===============================================================================
|
|  DFTB+ release 20.1
|
|  Copyright (C) 2006 - 2020  DFTB+ developers group
|
|===============================================================================
|
|  When publishing results obtained with DFTB+, please cite the following
|  reference:
|
|  * DFTB+, a software package for efficient approximate density functional
|    theory based atomistic simulations, J. Chem. Phys. 152, 124101 (2020).
|    [doi: 10.1063/1.5143190]
|
|  You should also cite additional publications crediting the parametrization
|  data you use. Please consult the documentation of the SK-files for the
|  references.
|
|===============================================================================

Reading input file 'dftb_in.hsd'
Parser version: 8

--------------------------------------------------------------------------------
Reading SK-files:
Done.


Processed input in HSD format written to 'dftb_pin.hsd'

Starting initialization...
--------------------------------------------------------------------------------
OpenMP threads:              1
Chosen random seed:          507935904
Mode:                        Static calculation
Self consistent charges:     Yes
SCC-tolerance:                 0.100000E-05
Max. scc iterations:                   1000
Shell resolved Hubbard:      No
Spin polarisation:           No
Nr. of up electrons:             6.000000
Nr. of down electrons:           6.000000
Periodic boundaries:         No
Electronic solver:           Relatively robust
Maximal SCC-cycles:                    1000
Initial charges:             Set automatically (system chrg:   0.100E+01)
Included shells:             C:  s, p
                             N:  s, p
                             H:  s
Spin coupling constants:     C   1(s)-1(s):  -0.455900E-01
                             C   1(s)-2(p):  -0.293000E-01
                             C   2(p)-1(s):  -0.293000E-01
                             C   2(p)-2(p):  -0.275500E-01
                             N   1(s)-1(s):  -0.468700E-01
                             N   1(s)-2(p):  -0.317000E-01
                             N   2(p)-1(s):  -0.317000E-01
                             N   2(p)-2(p):  -0.307200E-01
                             H   1(s)-1(s):  -0.792500E-01
Range separated hybrid:      Yes
  Screening parameter omega:   0.300000E+00
  Range separated algorithm:   MatrixBased
Extra options:
                             Mulliken analysis
                             Force calculation
Force type                   original
                             Eigenvector printing


REKS Calcuation:             Yes
SSR(2,2) Calcuation:         Yes
Energy Functional:           (PPS+OSS)/2
Number of Core Orbitals:                  5
Number of Active Orbitals:                2
Number of Basis:                         12
Number of States:                         2
State-Averaging Weight:          0.500000
                                 0.500000
State of Interest:                        1
Initial Guess:               Diagonalize H0 matrix
Newton-Raphson for FON opt:  Yes
NR max. Iterations:                      50
Level Shifting:              Yes
Shift Value:                     0.300000
W Scale Factor:              C  =    3.000000
                             N  =    3.000000
                             H  =    3.000000
Transition Dipole:           No
Gradient of Microstate:      No
CP-REKS Solver:              Preconditioned Conjugate-Gradient
CG max. Iterations:                     100
CG Tolerance:                  0.100000E-07
Memory for A and Hxc:        Direct Updating Without Saving
Non-Adiabatic Coupling:      Yes

--------------------------------------------------------------------------------

***  Geometry step: 0

  iSCC       reks energy        Diff energy         x_a       SCC error   
    1       -6.2644774969       0.0000000000     0.998598    1.17971644
    2       -6.2776689575      -0.0131914606     0.999481    0.10689138
    3       -6.2812483040      -0.0035793465     0.999726    0.04927417
    4       -6.2827006713      -0.0014523672     0.999821    0.02502378
    5       -6.2834069327      -0.0007062614     0.999864    0.01363140
    6       -6.2838167288      -0.0004097961     0.999886    0.00765916
    7       -6.2840907092      -0.0002739804     0.999897    0.00487696
    8       -6.2842907430      -0.0002000339     0.999904    0.00460253
    9       -6.2844438394      -0.0001530964     0.999909    0.00424574
   10       -6.2845637419      -0.0001199025     0.999912    0.00386376
   11       -6.2846585789      -0.0000948371     0.999913    0.00348416
   12       -6.2847337991      -0.0000752201     0.999915    0.00312069
   13       -6.2847933988      -0.0000595998     0.999915    0.00278034
   14       -6.2848404804      -0.0000470816     0.999916    0.00252819
   15       -6.2848775269      -0.0000370465     0.999916    0.00231019
   16       -6.2849065528      -0.0000290259     0.999917    0.00209572
   17       -6.2849291975      -0.0000226448     0.999917    0.00188958
   18       -6.2849467921      -0.0000175946     0.999917    0.00169492
   19       -6.2849604110      -0.0000136189     0.999917    0.00151361
   20       -6.2849709162      -0.0000105052     0.999917    0.00134657
   21       -6.2849789943      -0.0000080781     0.999917    0.00119406
   22       -6.2849851887      -0.0000061945     0.999917    0.00105582
   23       -6.2849899271      -0.0000047383     0.999917    0.00093130
   24       -6.2849935436      -0.0000036166     0.999917    0.00081970
   25       -6.2849962987      -0.0000027550     0.999917    0.00072013
   26       -6.2849983938      -0.0000020952     0.999917    0.00063162
   27       -6.2849999848      -0.0000015910     0.999917    0.00055320
   28       -6.2850011914      -0.0000012066     0.999917    0.00048391
   29       -6.2850021054      -0.0000009140     0.999917    0.00042284
   30       -6.2850027970      -0.0000006917     0.999917    0.00036912
   31       -6.2850033200      -0.0000005230     0.999917    0.00032195
   32       -6.2850037151      -0.0000003951     0.999917    0.00028060
   33       -6.2850040134      -0.0000002983     0.999916    0.00024440
   34       -6.2850042385      -0.0000002251     0.999916    0.00021275
   35       -6.2850044082      -0.0000001698     0.999916    0.00018511
   36       -6.2850045362      -0.0000001280     0.999916    0.00016099
   37       -6.2850046326      -0.0000000964     0.999916    0.00013995
   38       -6.2850047053      -0.0000000727     0.999916    0.00012163
   39       -6.2850047600      -0.0000000547     0.999916    0.00010567
   40       -6.2850048012      -0.0000000412     0.999916    0.00009178
   41       -6.2850048322      -0.0000000310     0.999916    0.00007970
   42       -6.2850048556      -0.0000000233     0.999916    0.00006920
   43       -6.2850048731      -0.0000000176     0.999916    0.00006007
   44       -6.2850048863      -0.0000000132     0.999916    0.00005213
   45       -6.2850048963      -0.0000000099     0.999916    0.00004524
   46       -6.2850049038      -0.0000000075     0.999916    0.00003925
   47       -6.2850049094      -0.0000000056     0.999916    0.00003406
   48       -6.2850049136      -0.0000000042     0.999916    0.00002955
   49       -6.2850049168      -0.0000000032     0.999916    0.00002563
   50       -6.2850049192      -0.0000000024     0.999916    0.00002223
   51       -6.2850049210      -0.0000000018     0.999916    0.00001928
   52       -6.2850049223      -0.0000000014     0.999916    0.00001672
   53       -6.2850049234      -0.0000000010     0.999916    0.00001450
   54       -6.2850049241      -0.0000000008     0.999916    0.00001258
   55       -6.2850049247      -0.0000000006     0.999916    0.00001091
   56       -6.2850049251      -0.0000000004     0.999916    0.00000946
   57       -6.2850049254      -0.0000000003     0.999916    0.00000820
   58       -6.2850049257      -0.0000000002     0.999916    0.00000711
   59       -6.2850049259      -0.0000000002     0.999916    0.00000617
   60       -6.2850049260      -0.0000000001     0.999916    0.00000535
   61       -6.2850049261      -0.0000000001     0.999916    0.00000464
   62       -6.2850049262      -0.0000000001     0.999916    0.00000402
   63       -6.2850049263      -0.0000000001     0.999916    0.00000349
   64       -6.2850049263      -0.0000000000     0.999916    0.00000302
   65       -6.2850049263      -0.0000000000     0.999916    0.00000262
   66       -6.2850049264      -0.0000000000     0.999916    0.00000227
   67       -6.2850049264      -0.0000000000     0.999916    0.00000197
   68       -6.2850049264      -0.0000000000     0.999916    0.00000171
   69       -6.2850049264      -0.0000000000     0.999916    0.00000148
   70       -6.2850049264      -0.0000000000     0.999916    0.00000128
   71       -6.2850049264      -0.0000000000     0.999916    0.00000111
   72       -6.2850049264      -0.0000000000     0.999916    0.00000097
  
--------------------------------------------------
 Final SA-REKS(2,2) energy:      -6.28500493
  
 State     Energy      FON(1)    FON(2)   Spin
  PPS   -6.40492167   1.999833  0.000167  0.00
  OSS   -6.16508819   1.000000  1.000000  0.00
 Trip   -6.24727437   1.000000  1.000000  1.00
--------------------------------------------------

 Lagrangian Wab:  -0.00993906 -0.00993872

--------------------------------------------------
 SSR: 2SI-2SA-REKS(2,2) Hamiltonian matrix
               PPS           OSS
   PPS    -6.40492167   -0.01392677
   OSS    -0.01392677   -6.16508819
--------------------------------------------------

----------------------------------------------------------------
 SSR: 2SI-2SA-REKS(2,2) states
                    E_n       C_{PPS}    C_{OSS}
 SSR state  1   -6.40572766  -0.998329  -0.057777
 SSR state  2   -6.16428219   0.057777  -0.998329
----------------------------------------------------------------

 unrelaxed SSR FONs for S0:  1.996495  0.003505

Total Energy:                       -6.4057276638 H         -174.3087 eV
Extrapolated to 0:                  -6.4057276638 H         -174.3087 eV

----------------------------------------------------------------------------------
 Solving CP-REKS equation for  1 state vector...
----------------------------------------------------------------------------------
  CG solver: Constructing Y initial guess
  CG solver: Iteration    1    eps =    0.000346578050
  CG solver: Iteration    2    eps =    0.000051265088
  CG solver: Iteration    3    eps =    0.000016509071
  CG solver: Iteration    4    eps =    0.000003243377
  CG solver: Iteration    5    eps =    0.000000040431
  CG solver: Iteration    6    eps =    0.000000018241
  CG solver: Iteration    7    eps =    0.000000000269
  Convergence reached in CG solver after    7 iterations
  CG solver: Calculating converged R, Z, Q2 matrix
----------------------------------------------------------------------------------

----------------------------------------------------------------------------------
 Solving CP-REKS equation for SI between  1 and  2 state vectors...
----------------------------------------------------------------------------------
  CG solver: Constructing Y initial guess
  CG solver: Iteration    1    eps =    0.006374156179
  CG solver: Iteration    2    eps =    0.010454328342
  CG solver: Iteration    3    eps =    0.000941564741
  CG solver: Iteration    4    eps =    0.000015483416
  CG solver: Iteration    5    eps =    0.000002377087
  CG solver: Iteration    6    eps =    0.000000074950
  CG solver: Iteration    7    eps =    0.000000007494
  Convergence reached in CG solver after    7 iterations
  CG solver: Calculating converged R, Z, Q2 matrix
----------------------------------------------------------------------------------

--------------------------------------------------
 Gradient Information
--------------------------------------------------
           1 st state (SSR)
    -0.00788905    -0.00127901    -0.01510196
     0.02015004    -0.00475036     0.02110823
     0.01503130     0.00246057     0.00395017
     0.00986051     0.00712372    -0.00342245
    -0.02283104     0.00009325    -0.01113810
    -0.01432176    -0.00364817     0.00460411

           2 st state (SSR)
     0.00806603    -0.00497583     0.09537144
    -0.02073075     0.01002540    -0.10367688
    -0.01608409     0.00679939     0.01931164
    -0.00785911    -0.00070745    -0.01316375
     0.02044164    -0.00000691    -0.01588281
     0.01616628    -0.01113460     0.01804037
--------------------------------------------------
 Coupling Information
--------------------------------------------------
 between  1 and  2 states
--------------------------------------------------
 g vector - difference gradient
    -0.00814684     0.00206497    -0.06150632
     0.02186686    -0.00806493     0.06755148
     0.01786522    -0.00142120    -0.00726391
     0.01106395     0.00376534     0.00515512
    -0.02481046     0.00074772     0.00229994
    -0.01783873     0.00290810    -0.00623632

 h vector - derivative coupling
     0.00099606    -0.00175777     0.05078786
    -0.01109959     0.00540217    -0.04081007
    -0.01896860    -0.00656803    -0.00403360
    -0.01846603     0.00152035    -0.00216755
     0.02607864    -0.00600411     0.00076082
     0.02145952     0.00740739    -0.00453746

 G vector - GDV
    -0.00797754     0.00184841    -0.05523670
     0.02044040    -0.00738788     0.06239256
     0.01555769    -0.00216941    -0.00768073
     0.00885981     0.00391559     0.00487065
    -0.02163634     0.00005008     0.00237236
    -0.01524402     0.00374322    -0.00671813

 H vector - DCV - non-adiabatic coupling
     0.00799037    -0.00821820     0.23833229
    -0.05611236     0.02607828    -0.20017132
    -0.08657407    -0.02634228    -0.01312383
    -0.08125687     0.00445577    -0.01138057
     0.11914369    -0.02505860     0.00203117
     0.09680923     0.02908503    -0.01568774
--------------------------------------------------


--------------------------------------------------------------------------------
DFTB+ running times                          cpu [s]             wall clock [s]
--------------------------------------------------------------------------------
SCC                                    +     0.04  ( 57.8%)      0.04  ( 52.9%)
Post-SCC processing                    +     0.02  ( 38.8%)      0.03  ( 35.7%)
  Force calculation                          0.02  ( 37.7%)      0.02  ( 32.9%)
--------------------------------------------------------------------------------
Missing                                +     0.00  (  3.4%)      0.01  ( 11.4%)
Total                                  =     0.06  (100.0%)      0.07  (100.0%)
--------------------------------------------------------------------------------
