     6
  Step:     0            Position(A)                                  Velocity(au)
C        -0.04056580     0.01665236     0.01212581     0.00000608    -0.00003927    -0.00026267
N        -0.04632444    -0.05775680     1.30163169     0.00014238    -0.00007145     0.00016076
H         0.95490589     0.00352473    -0.51140646    -0.00016271     0.00021493     0.00040313
H         0.84505036    -0.12525675     1.82584704    -0.00113047     0.00053392    -0.00044933
H        -0.91473938    -0.02300722     1.87923503    -0.00076384     0.00028443     0.00076415
H        -0.97102918     0.07913975    -0.53405808     0.00000596     0.00042766     0.00017805
     6
  Step:     1            Position(A)                                  Velocity(au)
C        -0.04051022     0.01644397     0.01058465     0.00001395    -0.00003702    -0.00029951
N        -0.04554779    -0.05815556     1.30263054     0.00013988    -0.00007423     0.00020334
H         0.95394947     0.00471536    -0.50933297    -0.00018358     0.00022045     0.00035292
H         0.83881293    -0.12233998     1.82345658    -0.00113493     0.00053177    -0.00041519
H        -0.91879984    -0.02144377     1.88338795    -0.00071137     0.00028693     0.00074733
H        -0.97123006     0.08149392    -0.53340996    -0.00008028     0.00043365     0.00005825
     6
  Step:     2            Position(A)                                  Velocity(au)
C        -0.04041321     0.01624740     0.00884987     0.00002115    -0.00003496    -0.00033343
N        -0.04479442    -0.05856871     1.30385574     0.00013392    -0.00007672     0.00024334
H         0.95289792     0.00593598    -0.50754635    -0.00019745     0.00022595     0.00029828
H         0.83263679    -0.11944038     1.82130579    -0.00110767     0.00052782    -0.00036142
H        -0.92252017    -0.01986883     1.88740911    -0.00064075     0.00028870     0.00071694
H        -0.97190729     0.08388289    -0.53342099    -0.00016718     0.00044040    -0.00006222
     6
  Step:     3            Position(A)                                  Velocity(au)
C        -0.04027893     0.01606161     0.00693805     0.00002751    -0.00003309    -0.00036422
N        -0.04408316    -0.05899464     1.30529190     0.00012457    -0.00007892     0.00028033
H         0.95178999     0.00718651    -0.50607081    -0.00020423     0.00023143     0.00023921
H         0.82669879    -0.11656744     1.81950384    -0.00104789     0.00052220    -0.00028764
H        -0.92580740    -0.01828638     1.89122878    -0.00055431     0.00028974     0.00067463
H        -0.97305843     0.08631038    -0.53409043    -0.00025254     0.00044771    -0.00018181
     6
  Step:     4            Position(A)                                  Velocity(au)
C        -0.04011238     0.01588556     0.00486690     0.00003289    -0.00003141    -0.00039169
N        -0.04343212    -0.05943176     1.30692139     0.00011202    -0.00008082     0.00031393
H         0.95066457     0.00846688    -0.50493043    -0.00020395     0.00023690     0.00017579
H         0.82117739    -0.11372970     1.81816020    -0.00095591     0.00051515    -0.00019419
H        -0.92858190    -0.01670029     1.89478671    -0.00045455     0.00029009     0.00062220
H        -0.97466900     0.08877889    -0.53540917    -0.00033419     0.00045535    -0.00029899
     6
  Step:     5            Position(A)                                  Velocity(au)
C        -0.03991926     0.01571819     0.00265490     0.00003718    -0.00002991    -0.00041572
N        -0.04285825    -0.05987846     1.30872481     0.00009652    -0.00008245     0.00034387
H         0.94955979     0.00977703    -0.50414856    -0.00019685     0.00024235     0.00010819
H         0.81624582    -0.11093421     1.81738032    -0.00083336     0.00050697    -0.00008223
H        -0.93077799    -0.01511423     1.89803259    -0.00034408     0.00028979     0.00056149
H        -0.97671283     0.09128970    -0.53735987    -0.00041005     0.00046310    -0.00041229
     6
  Step:     6            Position(A)                                  Velocity(au)
C        -0.03970583     0.01555850     0.00032109     0.00004029    -0.00002860    -0.00043624
N        -0.04237671    -0.06033329     1.31068155     0.00007846    -0.00008381     0.00036997
H         0.94851205     0.01111691    -0.50374734    -0.00018333     0.00024778     0.00003672
H         0.81206478    -0.10818611     1.81726101    -0.00068323     0.00049804     0.00004621
H        -0.93234436    -0.01353152     1.90092647    -0.00022555     0.00028891     0.00049442
H        -0.97915286     0.09384280    -0.53991747    -0.00047823     0.00047072    -0.00052036
     6
  Step:     7            Position(A)                                  Velocity(au)
C        -0.03947875     0.01540551    -0.00211522     0.00004216    -0.00002745    -0.00045320
N        -0.04200035    -0.06079487     1.31277031     0.00005830    -0.00008493     0.00039215
H         0.94755513     0.01248648    -0.50374708    -0.00016396     0.00025320    -0.00003826
H         0.80877485    -0.10548832     1.81788562    -0.00050990     0.00048877     0.00018823
H        -0.93324437    -0.01195505     1.90343891    -0.00010168     0.00028755     0.00042292
H        -0.98194218     0.09643688    -0.54304985    -0.00053704     0.00047796    -0.00062195
     6
  Step:     8            Position(A)                                  Velocity(au)
C        -0.03924483     0.01525830    -0.00463466     0.00004278    -0.00002647    -0.00046660
N        -0.04173918    -0.06126202     1.31496968     0.00003662    -0.00008585     0.00041041
H         0.94671918     0.01388565    -0.50416571    -0.00013947     0.00025858    -0.00011624
H         0.80648900    -0.10284134     1.81931932    -0.00031902     0.00047961     0.00034011
H        -0.93345626    -0.01038720     1.90555107     0.00002479     0.00028579     0.00034893
H        -0.98502539     0.09906933    -0.54671857    -0.00058504     0.00048459    -0.00071598
     6
  Step:     9            Position(A)                                  Velocity(au)
C        -0.03901091     0.01511600    -0.00721792     0.00004217    -0.00002564    -0.00047646
N        -0.04159984    -0.06173371     1.31725851     0.00001407    -0.00008659     0.00042484
H         0.94602986     0.01531428    -0.50501820    -0.00011079     0.00026390    -0.00019660
H         0.80528611    -0.10024334     1.82160496    -0.00011730     0.00047096     0.00049743
H        -0.93297328    -0.00882975     1.90725476     0.00015108     0.00028374     0.00027441
H        -0.98834010     0.10173626    -0.55087970    -0.00062111     0.00049036    -0.00080149
     6
  Step:    10            Position(A)                                  Velocity(au)
C        -0.03878359     0.01497786    -0.00984588     0.00004039    -0.00002494    -0.00048281
N        -0.04158526    -0.06220911     1.31961632    -0.00000864    -0.00008719     0.00043557
H         0.94550740     0.01677201    -0.50631594    -0.00007898     0.00026912    -0.00027861
H         0.80520600    -0.09769030     1.82475985     0.00008780     0.00046317     0.00065531
H        -0.93180389    -0.00728383     1.90855241     0.00027435     0.00028154     0.00020133
H        -0.99181859     0.10443249    -0.55548467    -0.00064440     0.00049503    -0.00087767
     6
  Step:    11            Position(A)                                  Velocity(au)
C        -0.03856907     0.01484319    -0.01249963     0.00003889    -0.00002088    -0.00054572
N        -0.04169439    -0.06268750     1.32202343    -0.00003123    -0.00009073     0.00049168
H         0.94516588     0.01825829    -0.50806605    -0.00008590     0.00030144    -0.00031944
H         0.80624658    -0.09517648     1.82877378     0.00026428     0.00042959     0.00078310
H        -0.92997207    -0.00574984     1.90945716     0.00041629     0.00030975     0.00010863
H        -0.99538949     0.10715161    -0.56048105    -0.00062421     0.00046894    -0.00090206
     6
  Step:    12            Position(A)                                  Velocity(au)
C        -0.03835798     0.01474933    -0.01581814     0.00003772    -0.00001344    -0.00066489
N        -0.04192698    -0.06320200     1.32499719    -0.00005293    -0.00009721     0.00059316
H         0.94456735     0.02007094    -0.50981178    -0.00013189     0.00034731    -0.00031932
H         0.80809821    -0.09298900     1.83332994     0.00040545     0.00038515     0.00087531
H        -0.92724811    -0.00389406     1.90974128     0.00057244     0.00035444    -0.00000259
H        -0.99864976     0.10956446    -0.56535662    -0.00055996     0.00042431    -0.00087336
     6
  Step:    13            Position(A)                                  Velocity(au)
C        -0.03815593     0.01469596    -0.01978168     0.00003545    -0.00000616    -0.00077761
N        -0.04227412    -0.06375222     1.32851991    -0.00007252    -0.00010342     0.00068890
H         0.94372134     0.02206214    -0.51156332    -0.00017413     0.00037390    -0.00032099
H         0.81068720    -0.09095823     1.83836038     0.00053068     0.00036195     0.00095375
H        -0.92370259    -0.00186792     1.90942880     0.00071186     0.00037987    -0.00010605
H        -1.00152228     0.11179881    -0.57004632    -0.00048315     0.00039488    -0.00083385
     6
  Step:    14            Position(A)                                  Velocity(au)
C        -0.03796923     0.01468182    -0.02434612     0.00003200     0.00000082    -0.00087999
N        -0.04272225    -0.06433620     1.33255227    -0.00008914    -0.00010908     0.00077548
H         0.94265772     0.02417151    -0.51333207    -0.00020955     0.00039132    -0.00032464
H         0.81391808    -0.08901953     1.84378957     0.00063574     0.00034737     0.00101623
H        -0.91944120     0.00027198     1.90857821     0.00082799     0.00039715    -0.00019619
H        -1.00394840     0.11389507    -0.57450133    -0.00039689     0.00037025    -0.00078574
     6
  Step:    15            Position(A)                                  Velocity(au)
C        -0.03780425     0.01470501    -0.02945143     0.00002744     0.00000738    -0.00096910
N        -0.04325360    -0.06495084     1.33704124    -0.00010205    -0.00011399     0.00085038
H         0.94141868     0.02636216    -0.51513057    -0.00023609     0.00040251    -0.00033037
H         0.81767297    -0.08714113     1.84952718     0.00071677     0.00033691     0.00106014
H        -0.91460420     0.00249618     1.90727293     0.00091448     0.00040983    -0.00026857
H        -1.00588348     0.11586734    -0.57868041    -0.00030404     0.00034698    -0.00073049
     6
  Step:    16            Position(A)                                  Velocity(au)
C        -0.03766697     0.01476308    -0.03502303     0.00002185     0.00001339    -0.00104242
N        -0.04384653    -0.06559203     1.34192115    -0.00011061    -0.00011796     0.00091140
H         0.94005664     0.02860613    -0.51697191    -0.00025212     0.00040859    -0.00033822
H         0.82181496    -0.08530772     1.85546944     0.00077089     0.00032822     0.00108346
H        -0.90936608     0.00478715     1.90561930     0.00096557     0.00041949    -0.00031932
H        -1.00729806     0.11771782    -0.58254931    -0.00020773     0.00032354    -0.00066961
     6
  Step:    17            Position(A)                                  Velocity(au)
C        -0.03756270     0.01485297    -0.04097338     0.00001543     0.00001875    -0.00109799
N        -0.04447617    -0.06625470     1.34711507    -0.00011438    -0.00012087     0.00095686
H         0.93863198     0.03087839    -0.51886899    -0.00025657     0.00041004    -0.00034808
H         0.82619370    -0.08351328     1.86150281     0.00079658     0.00031995     0.00108523
H        -0.90393162     0.00713290     1.90374346     0.00097692     0.00042704    -0.00034550
H        -1.00817953     0.11944341    -0.58608169    -0.00011137     0.00029933    -0.00060492
     6
  Step:    18            Position(A)                                  Velocity(au)
C        -0.03749573     0.01497107    -0.04720497     0.00000841     0.00002337    -0.00113485
N        -0.04511559    -0.06693305     1.35253736    -0.00011321    -0.00012265     0.00098593
H         0.93721009     0.03315546    -0.52083381    -0.00024905     0.00040726    -0.00035977
H         0.83065290    -0.08175799     1.86750983     0.00079408     0.00031127     0.00106588
H        -0.89852739     0.00952503     1.90178603     0.00094636     0.00043315    -0.00034553
H        -1.00853373     0.12103887    -0.58926075    -0.00001849     0.00027432    -0.00053854
     6
  Step:    19            Position(A)                                  Velocity(au)
C        -0.03746900     0.01511330    -0.05361566     0.00000106     0.00002721    -0.00115341
N        -0.04573730    -0.06762101     1.35809840    -0.00010725    -0.00012336     0.00099898
H         0.93585750     0.03541531    -0.52287686    -0.00023002     0.00040083    -0.00037313
H         0.83503980    -0.08004573     1.87337678     0.00076551     0.00030185     0.00102747
H        -0.89338916     0.01195817     1.89989426     0.00087463     0.00043855    -0.00031957
H        -1.00838553     0.12249935    -0.59208106     0.00006761     0.00024885    -0.00047288
     6
  Step:    20            Position(A)                                  Velocity(au)
C        -0.03748389     0.01527539    -0.06010605    -0.00000634     0.00003027    -0.00115569
N        -0.04631519    -0.06831281     1.36371111    -0.00009703    -0.00012318     0.00099781
H         0.93463731     0.03763881    -0.52500727    -0.00020068     0.00039164    -0.00038813
H         0.83921520    -0.07838171     1.87900218     0.00071477     0.00029181     0.00097358
H        -0.88874455     0.01443026     1.89821163     0.00076557     0.00044413    -0.00026966
H        -1.00777747     0.12382225    -0.59454996     0.00014424     0.00022355    -0.00041042
     6
  Step:    21            Position(A)                                  Velocity(au)
C        -0.03754019     0.01545310    -0.06658811    -0.00001354     0.00003264    -0.00114517
N        -0.04682643    -0.06900370     1.36929863    -0.00008333    -0.00012243     0.00098549
H         0.93360494     0.03981135    -0.52723352    -0.00016282     0.00038084    -0.00040498
H         0.84306292    -0.07677027     1.88430507     0.00064700     0.00028156     0.00090894
H        -0.88479575     0.01694345     1.89686743     0.00062547     0.00045096    -0.00019932
H        -1.00676650     0.12500868    -0.59668799     0.00020960     0.00019922    -0.00035349
     6
  Step:    22            Position(A)                                  Velocity(au)
C        -0.03763624     0.01564265    -0.07299319    -0.00002034     0.00003442    -0.00112620
N        -0.04725291    -0.06969061     1.37480133    -0.00006705    -0.00012150     0.00096589
H         0.93280502     0.04192452    -0.52956468    -0.00011846     0.00036973    -0.00042411
H         0.84649613    -0.07521316     1.88923084     0.00056769     0.00027177     0.00083854
H        -0.88170585     0.01950507     1.89596855     0.00046188     0.00046018    -0.00011292
H        -1.00541878     0.12606416    -0.59852798     0.00026294     0.00017660    -0.00030396
     6
  Step:    23            Position(A)                                  Velocity(au)
C        -0.03776931     0.01584091    -0.07927652    -0.00002661     0.00003577    -0.00110304
N        -0.04758185    -0.07037253     1.38018084    -0.00004907    -0.00012073     0.00094276
H         0.93227032     0.04397690    -0.53201177    -0.00006946     0.00035948    -0.00044603
H         0.84945881    -0.07370841     1.89375255     0.00048176     0.00026305     0.00076682
H        -0.87959196     0.02212804     1.89559517     0.00028233     0.00047278    -0.00001490
H        -1.00380408     0.12699831    -0.60011257     0.00030431     0.00015623    -0.00026305
     6
  Step:    24            Position(A)                                  Velocity(au)
C        -0.03793593     0.01604553    -0.08541666    -0.00003227     0.00003682    -0.00107893
N        -0.04780558    -0.07105039     1.38541964    -0.00003014    -0.00012040     0.00091905
H         0.93202268     0.04597332    -0.53458826    -0.00001735     0.00035089    -0.00047107
H         0.85192220    -0.07225046     1.89786749     0.00039300     0.00025584     0.00069695
H        -0.87852603     0.02483003     1.89580077     0.00009350     0.00048937     0.00009067
H        -1.00199134     0.12782379    -0.60149070     0.00033412     0.00013839    -0.00023132
     6
  Step:    25            Position(A)                                  Velocity(au)
C        -0.03813217     0.01625493    -0.09140988    -0.00003723     0.00003765    -0.00105568
N        -0.04792076    -0.07172652     1.39051616    -0.00001087    -0.00012062     0.00089640
H         0.93207518     0.04792285    -0.53730934     0.00003663     0.00034429    -0.00049920
H         0.85387841    -0.07083129     1.90159026     0.00030402     0.00025030     0.00063077
H        -0.87854051     0.02763133     1.89661485    -0.00009871     0.00050991     0.00020006
H        -1.00004667     0.12855465    -0.60271394     0.00035270     0.00012310    -0.00020881
     6
  Step:    26            Position(A)                                  Velocity(au)
C        -0.03835367     0.01646797    -0.09726219    -0.00004139     0.00003830    -0.00103369
N        -0.04792756    -0.07240382     1.39547794     0.00000818    -0.00012135     0.00087533
H         0.93243376     0.04983648    -0.54018969     0.00009136     0.00033961    -0.00052986
H         0.85533356    -0.06944185     1.90494525     0.00021662     0.00024637     0.00056909
H        -0.87963358     0.03055166     1.89804558    -0.00028863     0.00053377     0.00030964
H        -0.99803377     0.12920511    -0.60383371     0.00036011     0.00011025    -0.00019522
     6
  Step:    27            Position(A)                                  Velocity(au)
C        -0.03859549     0.01668369    -0.10298176    -0.00004461     0.00003878    -0.00101251
N        -0.04782917    -0.07308500     1.40031520     0.00002648    -0.00012246     0.00085558
H         0.93309792     0.05172469    -0.54324097     0.00014563     0.00033651    -0.00056214
H         0.85630337    -0.06807321     1.90796103     0.00013233     0.00024380     0.00051221
H        -0.88177165     0.03360678     1.90008114    -0.00047052     0.00055984     0.00041571
H        -0.99601537     0.12978884    -0.60489941     0.00035618     0.00009960    -0.00019011
     6
  Step:    28            Position(A)                                  Velocity(au)
C        -0.03885209     0.01690123    -0.10857413    -0.00004677     0.00003908    -0.00099132
N        -0.04763173    -0.07377201     1.40503663     0.00004347    -0.00012378     0.00083659
H         0.93406081     0.05359597    -0.54646996     0.00019816     0.00033452    -0.00059490
H         0.85681200    -0.06671809     1.91066771     0.00005274     0.00024226     0.00046033
H        -0.88489029     0.03680625     1.90268994    -0.00063846     0.00058673     0.00051454
H        -0.99405450     0.13031789    -0.60595766     0.00034074     0.00009091    -0.00019294
     6
  Step:    29            Position(A)                                  Velocity(au)
C        -0.03911719     0.01711968    -0.11404024    -0.00004772     0.00003919    -0.00096929
N        -0.04734425    -0.07446580     1.40964764     0.00005861    -0.00012511     0.00081776
H         0.93530844     0.05545632    -0.54987723     0.00024752     0.00033319    -0.00062693
H         0.85689173    -0.06537074     1.91309614    -0.00002051     0.00024149     0.00041370
H        -0.88889386     0.04015193     1.90582095    -0.00078667     0.00061300     0.00060257
H        -0.99221436     0.13080296    -0.60705172     0.00031381     0.00008396    -0.00020310
     6
  Step:    30            Position(A)                                  Velocity(au)
C        -0.03938392     0.01733805    -0.11937649    -0.00004738     0.00003910    -0.00094583
N        -0.04697854    -0.07516635     1.41415023     0.00007141    -0.00012631     0.00079863
H         0.93681937     0.05730924    -0.55345687     0.00029233     0.00033215    -0.00065711
H         0.85658337    -0.06402677     1.91527826    -0.00008578     0.00024129     0.00037270
H        -0.89365738     0.04363786     1.90940534    -0.00091003     0.00063730     0.00067677
H        -0.99055724     0.13125354    -0.60822112     0.00027578     0.00007853    -0.00021988
     6
  Step:    31            Position(A)                                  Velocity(au)
C        -0.03964500     0.01755528    -0.12457597    -0.00004571     0.00003882    -0.00092058
N        -0.04654883    -0.07587274     1.41854371     0.00008146    -0.00012723     0.00077891
H         0.93856479     0.05915615    -0.55719684     0.00033131     0.00033108    -0.00068445
H         0.85593619    -0.06268293     1.91724773    -0.00014149     0.00024155     0.00033775
H        -0.89903080     0.04725093     1.91335953    -0.00100456     0.00065850     0.00073480
H        -0.98914246     0.13167772    -0.60950104     0.00022746     0.00007445    -0.00024247
     6
  Step:    32            Position(A)                                  Velocity(au)
C        -0.03989306     0.01777036    -0.12962973    -0.00004273     0.00003834    -0.00089344
N        -0.04607127    -0.07658342     1.42282559     0.00008848    -0.00012780     0.00075846
H         0.94050940     0.06099674    -0.56108012     0.00036338     0.00032976    -0.00070820
H         0.85500753    -0.06133647     1.91904010    -0.00018627     0.00024221     0.00030927
H        -0.90484592     0.05097206     1.91758942    -0.00106771     0.00067571     0.00077526
H        -0.98802380     0.13208272    -0.61092168     0.00017014     0.00007153    -0.00026991
     6
  Step:    33            Position(A)                                  Velocity(au)
C        -0.04012094     0.01798235    -0.13452821    -0.00003849     0.00003770    -0.00086449
N        -0.04556322    -0.07729640     1.42699240     0.00009233    -0.00012799     0.00073725
H         0.94261261     0.06282949    -0.56508570     0.00038777     0.00032805    -0.00072785
H         0.85386130    -0.05998493     1.92069273    -0.00021910     0.00024329     0.00028755
H        -0.91092431     0.05477787     1.92199535    -0.00109849     0.00068838     0.00079763
H        -0.98724719     0.13247454    -0.61250760     0.00010547     0.00006963    -0.00030115
     6
  Step:    34            Position(A)                                  Velocity(au)
C        -0.04032199     0.01819044    -0.13926232    -0.00003315     0.00003693    -0.00083399
N        -0.04504250    -0.07800952     1.43104042     0.00009300    -0.00012777     0.00071536
H         0.94483014     0.06465201    -0.56919017     0.00040398     0.00032585    -0.00074307
H         0.85256623    -0.05862555     1.92224411    -0.00023938     0.00024485     0.00027277
H        -0.91708593     0.05864242     1.92647706    -0.00109739     0.00069626     0.00080230
H        -0.98684857     0.13285858    -0.61427727     0.00003543     0.00006851    -0.00033508
     6
  Step:    35            Position(A)                                  Velocity(au)
C        -0.04049039     0.01839399    -0.14382432    -0.00002685     0.00003606    -0.00080231
N        -0.04452664    -0.07872054     1.43496622     0.00009060    -0.00012715     0.00069294
H         0.94711558     0.06646163    -0.57336839     0.00041182     0.00032317    -0.00075376
H         0.85119303    -0.05725573     1.92373318    -0.00024701     0.00024690     0.00026493
H        -0.92315637     0.06253876     1.93093817    -0.00106612     0.00069936     0.00079035
H        -0.98685232     0.13323818    -0.61624258    -0.00003783     0.00006786    -0.00037053
     6
  Step:    36            Position(A)                                  Velocity(au)
C        -0.04062135     0.01859254    -0.14820839    -0.00001980     0.00003514    -0.00076985
N        -0.04403226    -0.07942733     1.43876700     0.00008537    -0.00012619     0.00067015
H         0.94942216     0.06825556    -0.57759499     0.00041141     0.00032004    -0.00076002
H         0.84981200    -0.05587252     1.92519818    -0.00024230     0.00024953     0.00026379
H        -0.92897366     0.06644056     1.93528986    -0.00100746     0.00069794     0.00076345
H        -0.98727037     0.13361527    -0.61840883    -0.00011204     0.00006744    -0.00040635
     6
  Step:    37            Position(A)                                  Velocity(au)
C        -0.04071123     0.01878588    -0.15241095    -0.00001222     0.00003419    -0.00073703
N        -0.04357447    -0.08012803     1.44244088     0.00007761    -0.00012494     0.00064719
H         0.95170435     0.07003122    -0.58184539     0.00040311     0.00031650    -0.00076207
H         0.84849043    -0.05447257     1.92667547    -0.00022606     0.00025281     0.00026894
H        -0.93439331     0.07032335     1.93945352    -0.00092490     0.00069246     0.00072363
H        -0.98810200     0.13399044    -0.62077495    -0.00018501     0.00006702    -0.00044149
     6
  Step:    38            Position(A)                                  Velocity(au)
C        -0.04075768     0.01897397    -0.15643065    -0.00000433     0.00003326    -0.00070427
N        -0.04316648    -0.08082110     1.44598692     0.00006768    -0.00012346     0.00062422
H         0.95391916     0.07178638    -0.58609659     0.00038746     0.00031264    -0.00076029
H         0.84729013    -0.05305216     1.92819847    -0.00019945     0.00025683     0.00027975
H        -0.93929169     0.07416551     1.94336259    -0.00082232     0.00068350     0.00067311
H        -0.98933427     0.13436289    -0.62333398    -0.00025464     0.00006634    -0.00047494
     6
  Step:    39            Position(A)                                  Velocity(au)
C        -0.04075958     0.01915699    -0.16026824     0.00000365     0.00003239    -0.00067189
N        -0.04281934    -0.08150542     1.44940515     0.00005600    -0.00012183     0.00060143
H         0.95602712     0.07351924    -0.59032769     0.00036516     0.00030854    -0.00075507
H         0.84626528    -0.05160723     1.92979656    -0.00016398     0.00026162     0.00029542
H        -0.94356766     0.07794890     1.94696320    -0.00070375     0.00067171     0.00061416
H        -0.99094297     0.13473060    -0.62607368    -0.00031908     0.00006521    -0.00050585
     6
  Step:    40            Position(A)                                  Velocity(au)
C        -0.04071700     0.01933529    -0.16392634     0.00001152     0.00003159    -0.00064020
N        -0.04254175    -0.08218024     1.45269648     0.00004297    -0.00012011     0.00057893
H         0.95799295     0.07522852    -0.59452022     0.00033699     0.00030430    -0.00074686
H         0.84546072    -0.05013353     1.93149423    -0.00012144     0.00026721     0.00031503
H        -0.94714279     0.08165919     1.95021416    -0.00057317     0.00065779     0.00054897
H        -0.99289400     0.13509042    -0.62897724    -0.00037672     0.00006344    -0.00053348
     6
  Step:    41            Position(A)                                  Velocity(au)
C        -0.04063111     0.01950934    -0.16740907     0.00001910     0.00003089    -0.00060940
N        -0.04234008    -0.08284517     1.45586255     0.00002901    -0.00011837     0.00055682
H         0.95978595     0.07691341    -0.59865826     0.00030376     0.00029998    -0.00073610
H         0.84491068    -0.04862673     1.93331041    -0.00007379     0.00027360     0.00033753
H        -0.94996087     0.08528601     1.95308650    -0.00043440     0.00064243     0.00047964
H        -0.99514495     0.13543822    -0.63202415    -0.00042623     0.00006086    -0.00055724
     6
  Step:    42            Position(A)                                  Velocity(au)
C        -0.04050404     0.01967976    -0.17072169     0.00002623     0.00003031    -0.00057964
N        -0.04221832    -0.08350020     1.45890554     0.00001452    -0.00011666     0.00053517
H         0.96138020     0.07857357    -0.60272839     0.00026632     0.00029566    -0.00072320
H         0.84463793    -0.04708263     1.93525797    -0.00002308     0.00028075     0.00036182
H        -0.95198675     0.08882289     1.95556262    -0.00029103     0.00062629     0.00040809
H        -0.99764683     0.13576906    -0.63519097    -0.00046658     0.00005735    -0.00057667
     6
  Step:    43            Position(A)                                  Velocity(au)
C        -0.04033874     0.01984723    -0.17387020     0.00003278     0.00002986    -0.00055102
N        -0.04217820    -0.08414560     1.46182802    -0.00000009    -0.00011504     0.00051402
H         0.96275458     0.08020905    -0.60671958     0.00022550     0.00029139    -0.00070855
H         0.84465346    -0.04549730     1.93734352     0.00002860     0.00028859     0.00038678
H        -0.95320491     0.09226717     1.95763541    -0.00014640     0.00061003     0.00033608
H        -1.00034585     0.13607744    -0.63845213    -0.00049707     0.00005280    -0.00059144
     6
  Step:    44            Position(A)                                  Velocity(au)
C        -0.04013881     0.02001246    -0.17686106     0.00003864     0.00002954    -0.00052356
N        -0.04221932    -0.08478193     1.46463275    -0.00001446    -0.00011353     0.00049338
H         0.96389272     0.08182027    -0.61062300     0.00018213     0.00028724    -0.00069252
H         0.84495654    -0.04386722     1.93956739     0.00007917     0.00029703     0.00041129
H        -0.95361795     0.09561978     1.95930720    -0.00000361     0.00059426     0.00026521
H        -1.00318509     0.13635740    -0.64178073    -0.00051724     0.00004717    -0.00060136
     6