     6
  Step:   300            Position(A)                                  Velocity(au)
C        -0.02179164     0.00843303     0.01327765    -0.00000473     0.00005485    -0.00005693
N        -0.07197769    -0.05252722     1.30475451     0.00006699    -0.00001274     0.00002492
H         0.31823169     0.93658617    -0.42979110     0.00034615    -0.00000235     0.00020487
H         0.06343326    -0.95508952     1.76828934    -0.00011006    -0.00025003    -0.00041843
H         0.01696314     0.81444544     1.84754212    -0.00072199     0.00012700    -0.00020297
H        -0.35167661    -0.83627606    -0.58353346    -0.00038865    -0.00035115     0.00074867
