|===============================================================================
|
|  DFTB+ release 20.1
|
|  Copyright (C) 2006 - 2020  DFTB+ developers group
|
|===============================================================================
|
|  When publishing results obtained with DFTB+, please cite the following
|  reference:
|
|  * DFTB+, a software package for efficient approximate density functional
|    theory based atomistic simulations, J. Chem. Phys. 152, 124101 (2020).
|    [doi: 10.1063/1.5143190]
|
|  You should also cite additional publications crediting the parametrization
|  data you use. Please consult the documentation of the SK-files for the
|  references.
|
|===============================================================================

Reading input file 'dftb_in.hsd'
Parser version: 8

--------------------------------------------------------------------------------
Reading SK-files:
Done.


Processed input in HSD format written to 'dftb_pin.hsd'

Starting initialization...
--------------------------------------------------------------------------------
OpenMP threads:              1
Chosen random seed:          452098758
Mode:                        Static calculation
Self consistent charges:     Yes
SCC-tolerance:                 0.100000E-05
Max. scc iterations:                   1000
Shell resolved Hubbard:      No
Spin polarisation:           No
Nr. of up electrons:             6.000000
Nr. of down electrons:           6.000000
Periodic boundaries:         No
Electronic solver:           Relatively robust
Maximal SCC-cycles:                    1000
Initial charges:             Set automatically (system chrg:   0.100E+01)
Included shells:             C:  s, p
                             N:  s, p
                             H:  s
Spin coupling constants:     C   1(s)-1(s):  -0.455900E-01
                             C   1(s)-2(p):  -0.293000E-01
                             C   2(p)-1(s):  -0.293000E-01
                             C   2(p)-2(p):  -0.275500E-01
                             N   1(s)-1(s):  -0.468700E-01
                             N   1(s)-2(p):  -0.317000E-01
                             N   2(p)-1(s):  -0.317000E-01
                             N   2(p)-2(p):  -0.307200E-01
                             H   1(s)-1(s):  -0.792500E-01
Range separated hybrid:      Yes
  Screening parameter omega:   0.300000E+00
  Range separated algorithm:   MatrixBased
Extra options:
                             Mulliken analysis
                             Force calculation
Force type                   original
                             Eigenvector printing


REKS Calcuation:             Yes
SSR(2,2) Calcuation:         Yes
Energy Functional:           (PPS+OSS)/2
Number of Core Orbitals:                  5
Number of Active Orbitals:                2
Number of Basis:                         12
Number of States:                         2
State-Averaging Weight:          0.500000
                                 0.500000
State of Interest:                        1
Initial Guess:               Diagonalize H0 matrix
Newton-Raphson for FON opt:  Yes
NR max. Iterations:                      50
Level Shifting:              Yes
Shift Value:                     0.300000
W Scale Factor:              C  =    3.200000
                             N  =    3.200000
                             H  =    3.200000
Transition Dipole:           No
Gradient of Microstate:      No
CP-REKS Solver:              Preconditioned Conjugate-Gradient
CG max. Iterations:                     100
CG Tolerance:                  0.100000E-07
Memory for A and Hxc:        Direct Updating Without Saving
Non-Adiabatic Coupling:      Yes

--------------------------------------------------------------------------------

***  Geometry step: 0

  iSCC       reks energy        Diff energy         x_a       SCC error   
    1       -6.2258225802       0.0000000000     0.998976    1.06968322
    2       -6.2381820664      -0.0123594862     0.999992    0.06245033
    3       -6.2406569090      -0.0024748425     1.000000    0.02961175
    4       -6.2411483961      -0.0004914872     1.000000    0.01001800
    5       -6.2412897616      -0.0001413654     1.000000    0.00441289
    6       -6.2413366467      -0.0000468851     1.000000    0.00243754
    7       -6.2413532507      -0.0000166041     1.000000    0.00162298
    8       -6.2413594129      -0.0000061622     1.000000    0.00107822
    9       -6.2413617909      -0.0000023780     1.000000    0.00071366
   10       -6.2413627410      -0.0000009500     1.000000    0.00047170
   11       -6.2413631328      -0.0000003918     1.000000    0.00031200
   12       -6.2413632992      -0.0000001665     1.000000    0.00020681
   13       -6.2413633719      -0.0000000727     1.000000    0.00013750
   14       -6.2413634045      -0.0000000326     1.000000    0.00009175
   15       -6.2413634194      -0.0000000149     1.000000    0.00006145
   16       -6.2413634264      -0.0000000070     1.000000    0.00004132
   17       -6.2413634297      -0.0000000033     1.000000    0.00002789
   18       -6.2413634313      -0.0000000016     1.000000    0.00001890
   19       -6.2413634321      -0.0000000008     1.000000    0.00001285
   20       -6.2413634324      -0.0000000004     1.000000    0.00000877
   21       -6.2413634326      -0.0000000002     1.000000    0.00000600
   22       -6.2413634327      -0.0000000001     1.000000    0.00000412
   23       -6.2413634328      -0.0000000000     1.000000    0.00000284
   24       -6.2413634328      -0.0000000000     1.000000    0.00000196
   25       -6.2413634328      -0.0000000000     1.000000    0.00000137
   26       -6.2413634328      -0.0000000000     1.000000    0.00000101
   27       -6.2413634328      -0.0000000000     1.000000    0.00000074
  
--------------------------------------------------
 Final SA-REKS(2,2) energy:      -6.24136343
  
 State     Energy      FON(1)    FON(2)   Spin
  PPS   -6.25088614   2.000000  0.000000  0.00
  OSS   -6.23184073   1.000000  1.000000  0.00
 Trip   -6.24966388   1.000000  1.000000  1.00
--------------------------------------------------

 Lagrangian Wab:  -0.02247757 -0.02247764

--------------------------------------------------
 SSR: 2SI-2SA-REKS(2,2) Hamiltonian matrix
               PPS           OSS
   PPS    -6.25088614   -0.03178219
   OSS    -0.03178219   -6.23184073
--------------------------------------------------

----------------------------------------------------------------
 SSR: 2SI-2SA-REKS(2,2) states
                    E_n       C_{PPS}    C_{OSS}
 SSR state  1   -6.27454158  -0.802190  -0.597069
 SSR state  2   -6.20818528   0.597069  -0.802190
----------------------------------------------------------------

 unrelaxed SSR FONs for S0:  1.643509  0.356491

Total Energy:                       -6.2745415843 H         -170.7390 eV
Extrapolated to 0:                  -6.2745415843 H         -170.7390 eV

----------------------------------------------------------------------------------
 Solving CP-REKS equation for  1 state vector...
----------------------------------------------------------------------------------
  CG solver: Constructing Y initial guess
  CG solver: Iteration    1    eps =    0.001595315634
  CG solver: Iteration    2    eps =    0.000053065843
  CG solver: Iteration    3    eps =    0.000002441326
  CG solver: Iteration    4    eps =    0.000000124756
  CG solver: Iteration    5    eps =    0.000000006239
  Convergence reached in CG solver after    5 iterations
  CG solver: Calculating converged R, Z, Q2 matrix
----------------------------------------------------------------------------------

----------------------------------------------------------------------------------
 Solving CP-REKS equation for SI between  1 and  2 state vectors...
----------------------------------------------------------------------------------
  CG solver: Constructing Y initial guess
  CG solver: Iteration    1    eps =    0.001821561340
  CG solver: Iteration    2    eps =    0.000703522870
  CG solver: Iteration    3    eps =    0.000007032827
  CG solver: Iteration    4    eps =    0.000000557789
  CG solver: Iteration    5    eps =    0.000000022230
  CG solver: Iteration    6    eps =    0.000000000720
  Convergence reached in CG solver after    6 iterations
  CG solver: Calculating converged R, Z, Q2 matrix
----------------------------------------------------------------------------------

--------------------------------------------------
 Gradient Information
--------------------------------------------------
           1 st state (SSR)
     0.03374959    -0.02645896    -0.06956877
    -0.06657836     0.01733520     0.08805219
     0.02354130     0.01520302    -0.03258676
     0.07133317    -0.05114051    -0.02492812
    -0.03902798     0.02604136     0.01016146
    -0.02301773     0.01901989     0.02887000

           2 st state (SSR)
     0.04418382    -0.02027256    -0.00635685
    -0.07946602     0.02300155     0.02799695
    -0.00986535     0.03445851    -0.03298484
     0.03836299    -0.07628362    -0.03329238
    -0.00887508     0.04707506     0.01103460
     0.01565964    -0.00797894     0.03360251
--------------------------------------------------
 Coupling Information
--------------------------------------------------
 between  1 and  2 states
--------------------------------------------------
 g vector - difference gradient
     0.00388060     0.00357488    -0.05853873
     0.02655318    -0.00494636     0.04124922
     0.00230147    -0.00374684     0.00251469
    -0.00337710     0.00251559     0.01204243
    -0.01795136    -0.00494837    -0.00066463
    -0.01140679     0.00755110     0.00339703

 h vector - derivative coupling
    -0.00660898    -0.00430018    -0.01545457
    -0.00122911    -0.00147557     0.01898726
     0.01674740    -0.00892798    -0.00054568
     0.01822102     0.01237000     0.00075762
    -0.01035999    -0.00949613    -0.00025661
    -0.01677034     0.01182986    -0.00348802

 G vector - GDV
    -0.00521711    -0.00309320    -0.03160596
     0.00644383    -0.00283318     0.03002762
     0.01670332    -0.00962775     0.00019904
     0.01648509     0.01257156     0.00418213
    -0.01507645    -0.01051685    -0.00043657
    -0.01933868     0.01349942    -0.00236626

 H vector - DCV - non-adiabatic coupling
    -0.08460712    -0.07020725     0.77822310
    -0.38864046     0.06502364    -0.51334987
     0.03921502     0.01547263    -0.03866251
     0.12756527     0.01718984    -0.17056852
     0.21433632     0.03036058     0.00848476
     0.09213097    -0.05783944    -0.06412696
--------------------------------------------------


--------------------------------------------------------------------------------
DFTB+ running times                          cpu [s]             wall clock [s]
--------------------------------------------------------------------------------
SCC                                    +     0.01  ( 54.4%)      0.01  ( 51.9%)
Post-SCC processing                    +     0.01  ( 40.6%)      0.01  ( 37.0%)
--------------------------------------------------------------------------------
Missing                                +     0.00  (  5.0%)      0.00  ( 11.1%)
Total                                  =     0.02  (100.0%)      0.03  (100.0%)
--------------------------------------------------------------------------------
