     6
  Step:     0            Position(A)                                  Velocity(au)
C        -0.04380165     0.02156909     0.02239578     0.00004691     0.00007976    -0.00023245
N        -0.03688260    -0.06534548     1.28829135    -0.00011559     0.00000774     0.00025912
H         0.91310255    -0.04102045    -0.50380263    -0.00018796    -0.00022563    -0.00025835
H         0.79563749    -0.04994390     1.87401759     0.00102059    -0.00028041     0.00055823
H        -0.93308130     0.00200841     1.88577307     0.00058576    -0.00014912    -0.00108063
H        -0.95412003     0.07022360    -0.53336566    -0.00037110    -0.00040290    -0.00005020
     6
  Step:     1            Position(A)                                  Velocity(au)
C        -0.04351960     0.02201912     0.02072075     0.00005587     0.00008505    -0.00037878
N        -0.03756406    -0.06534218     1.29008870    -0.00013184    -0.00000618     0.00039679
H         0.91219029    -0.04217309    -0.50530792    -0.00014645    -0.00019759    -0.00029228
H         0.80152083    -0.05136217     1.87714160     0.00111657    -0.00024084     0.00057627
H        -0.92956298     0.00125734     1.87956953     0.00069032    -0.00012640    -0.00117829
H        -0.95650064     0.06813662    -0.53379777    -0.00049403    -0.00036281    -0.00010607
     6
  Step:     2            Position(A)                                  Velocity(au)
C        -0.04319045     0.02249950     0.01825194     0.00006401     0.00009074    -0.00052126
N        -0.03832498    -0.06541306     1.29263221    -0.00014431    -0.00001926     0.00053045
H         0.91150036    -0.04318212    -0.50700024    -0.00010658    -0.00017325    -0.00032626
H         0.80785286    -0.05257875     1.88032206     0.00118333    -0.00020681     0.00057845
H        -0.92552915     0.00062556     1.87288249     0.00077097    -0.00010561    -0.00125435
H        -0.95952480     0.06625444    -0.53452604    -0.00060509    -0.00032804    -0.00015791
     6
  Step:     3            Position(A)                                  Velocity(au)
C        -0.04281894     0.02301244     0.01501492     0.00007114     0.00009666    -0.00065712
N        -0.03914371    -0.06555304     1.29589521    -0.00015247    -0.00003131     0.00065729
H         0.91102362    -0.04406951    -0.50887930    -0.00006805    -0.00015282    -0.00035962
H         0.81447386    -0.05362601     1.88347353     0.00121979    -0.00017855     0.00056480
H        -0.92112369     0.00010132     1.86583902     0.00082178    -0.00008681    -0.00130404
H        -0.96312413     0.06454581    -0.53552634    -0.00070244    -0.00029868    -0.00020473
     6
  Step:     4            Position(A)                                  Velocity(au)
C        -0.04241081     0.02355881     0.01105052     0.00007705     0.00010247    -0.00078313
N        -0.03999592    -0.06575614     1.29983543    -0.00015585    -0.00004215     0.00077403
H         0.91075465    -0.04485692    -0.51094135    -0.00003011    -0.00013604    -0.00039166
H         0.82122055    -0.05453547     1.88651169     0.00122549    -0.00015561     0.00053579
H        -0.91652327    -0.00032576     1.85859143     0.00083689    -0.00006953    -0.00132284
H        -0.96722291     0.06298117    -0.53676971    -0.00078462    -0.00027413    -0.00024564
     6
  Step:     5            Position(A)                                  Velocity(au)
C        -0.04197302     0.02413746     0.00641683     0.00008150     0.00010777    -0.00089589
N        -0.04085482    -0.06601585     1.30439335    -0.00015407    -0.00005171     0.00087733
H         0.91069308    -0.04556305    -0.51317939     0.00000802    -0.00012225    -0.00042178
H         0.82792868    -0.05533452     1.88935599     0.00120073    -0.00013716     0.00049255
H        -0.91193540    -0.00066204     1.85131548     0.00081137    -0.00005298    -0.00130697
H        -0.97173858     0.06153608    -0.53822328    -0.00085024    -0.00025336    -0.00027999
     6
  Step:     6            Position(A)                                  Velocity(au)
C        -0.04151374     0.02474506     0.00118959     0.00008429     0.00011218    -0.00099220
N        -0.04169178    -0.06632529     1.30949204    -0.00014695    -0.00005989     0.00096408
H         0.91084289    -0.04620248    -0.51558386     0.00004688    -0.00011072    -0.00044956
H         0.83443675    -0.05604516     1.89193311     0.00114680    -0.00012224     0.00043696
H        -0.90759263    -0.00090889     1.84420583     0.00074201    -0.00003634    -0.00125409
H        -0.97658132     0.06019247    -0.53985149    -0.00089802    -0.00023526    -0.00030737
     6
  Step:     7            Position(A)                                  Velocity(au)
C        -0.04104228     0.02537617    -0.00453900     0.00008527     0.00011537    -0.00106946
N        -0.04247744    -0.06667718     1.31503864    -0.00013458    -0.00006664     0.00103182
H         0.91121069    -0.04678566    -0.51814342     0.00008668    -0.00010080    -0.00047475
H         0.84059150    -0.05668426     1.89418082     0.00106631    -0.00011001     0.00037161
H        -0.90374224    -0.00106332     1.83746790     0.00062821    -0.00001900    -0.00116400
H        -0.98165445     0.05893834    -0.54161727    -0.00092707    -0.00021889    -0.00032764
     6
  Step:     8            Position(A)                                  Velocity(au)
C        -0.04056871     0.02602371    -0.01066349     0.00008438     0.00011712    -0.00112607
N        -0.04318337    -0.06706392     1.32092792    -0.00011742    -0.00007194     0.00107913
H         0.91180362    -0.04731971    -0.52084567     0.00012727    -0.00009198    -0.00049729
H         0.84625497    -0.05726441     1.89605178     0.00096335    -0.00009981     0.00029975
H        -0.90062997    -0.00111947     1.83130494     0.00047280    -0.00000064    -0.00103924
H        -0.98685631     0.05776649    -0.54348284    -0.00093716    -0.00020358    -0.00034079
     6
  Step:     9            Position(A)                                  Velocity(au)
C        -0.04010326     0.02667957    -0.01707067     0.00008172     0.00011739    -0.00116194
N        -0.04378418    -0.06747776     1.32704785    -0.00009631    -0.00007581     0.00110607
H         0.91262702    -0.04780926    -0.52367763     0.00016815    -0.00008391    -0.00051729
H         0.85131233    -0.05779499     1.89751663     0.00084338    -0.00009117     0.00022497
H        -0.89848065    -0.00107050     1.82590255     0.00028211     0.00001870    -0.00088529
H        -0.99208376     0.05667282    -0.54540984    -0.00092903    -0.00018898    -0.00034699
     6
  Step:    10            Position(A)                                  Velocity(au)
C        -0.03965557     0.02733548    -0.02364765     0.00007751     0.00011629    -0.00117874
N        -0.04425959    -0.06791108     1.33328773    -0.00007238    -0.00007839     0.00111447
H         0.91368256    -0.04825742    -0.52662615     0.00020864    -0.00007644    -0.00053500
H         0.85567932    -0.05828319     1.89856571     0.00071281    -0.00008380     0.00015088
H        -0.89747754    -0.00091047     1.82141230     0.00006550     0.00003875    -0.00071005
H        -0.99723772     0.05565468    -0.54736026    -0.00090475    -0.00017504    -0.00034693
     6
  Step:    11            Position(A)                                  Velocity(au)
C        -0.03923391     0.02798390    -0.03029140     0.00007210     0.00011411    -0.00117978
N        -0.04459599    -0.06835694     1.33954767    -0.00004690    -0.00007987     0.00110771
H         0.91496708    -0.04866658    -0.52967818     0.00024805    -0.00006949    -0.00055082
H         0.85930715    -0.05873484     1.89920889     0.00057828    -0.00007752     0.00008067
H        -0.89774601    -0.00063584     1.81793864    -0.00016612     0.00005907    -0.00052272
H        -1.00223143     0.05470959    -0.54930096    -0.00086765    -0.00016186    -0.00034194
     6
  Step:    12            Position(A)                                  Velocity(au)
C        -0.03884459     0.02861889    -0.03691734     0.00010699     0.00018056    -0.00189896
N        -0.04478711    -0.06880946     1.34574678    -0.00003427    -0.00013079     0.00177027
H         0.91647257    -0.04903897    -0.53282153     0.00046438    -0.00010239    -0.00091831
H         0.86218354    -0.05915509     1.89947309     0.00072384    -0.00011733     0.00002729
H        -0.89934595    -0.00024613     1.81553293    -0.00065274     0.00012857    -0.00053947
H        -1.00699671     0.05383413    -0.55120624    -0.00133415    -0.00024305    -0.00054175
     6
  Step:    13            Position(A)                                  Velocity(au)
C        -0.03826561     0.02961084    -0.04718438     0.00009643     0.00016813    -0.00171103
N        -0.04490568    -0.06952796     1.35535965    -0.00000813    -0.00012175     0.00160885
H         0.91942494    -0.04966872    -0.53832077     0.00056844    -0.00011845    -0.00101032
H         0.86588582    -0.05977946     1.89949156     0.00058261    -0.00010251    -0.00001575
H        -0.90368289     0.00051331     1.81310880    -0.00086654     0.00013855    -0.00031774
H        -1.01456597     0.05249275    -0.55454268    -0.00132059    -0.00022923    -0.00062454
     6
  Step:    14            Position(A)                                  Velocity(au)
C        -0.03774668     0.03053313    -0.05639828     0.00008583     0.00015588    -0.00152734
N        -0.04487969    -0.07019565     1.36406426     0.00001607    -0.00011277     0.00144971
H         0.92294451    -0.05038756    -0.54432450     0.00066086    -0.00013337    -0.00109275
H         0.86881680    -0.06032227     1.89929380     0.00045263    -0.00008844    -0.00004874
H        -0.90921196     0.00133131     1.81191533    -0.00106433     0.00014838    -0.00010991
H        -1.02203230     0.05122425    -0.55831697    -0.00129526    -0.00021698    -0.00069438
     6
  Step:    15            Position(A)                                  Velocity(au)
C        -0.03728754     0.03138714    -0.06458895     0.00007596     0.00014503    -0.00136034
N        -0.04472256    -0.07081305     1.37187955     0.00003777    -0.00010472     0.00130488
H         0.92695562    -0.05118850    -0.55077303     0.00074397    -0.00014802    -0.00117250
H         0.87104372    -0.06078728     1.89893610     0.00033778    -0.00007557    -0.00007253
H        -0.91581125     0.00220418     1.81185634    -0.00124485     0.00015828     0.00007869
H        -1.02932582     0.05002015    -0.56245537    -0.00126699    -0.00020772    -0.00075686
     6
  Step:    16            Position(A)                                  Velocity(au)
C        -0.03688367     0.03218078    -0.07185299     0.00006700     0.00013577    -0.00121160
N        -0.04445056    -0.07138534     1.37888889     0.00005671    -0.00009770     0.00117621
H         0.93139674    -0.05206922    -0.55764524     0.00081805    -0.00016273    -0.00125177
H         0.87265431    -0.06118085     1.89846975     0.00023791    -0.00006378    -0.00008796
H        -0.92335460     0.00312951     1.81280937    -0.00140482     0.00016787     0.00024684
H        -1.03642653     0.04886433    -0.56691567    -0.00123761    -0.00020157    -0.00081469
     6
  Step:    17            Position(A)                                  Velocity(au)
C        -0.03652966     0.03292296    -0.07829446     0.00005883     0.00012778    -0.00107767
N        -0.04408103    -0.07191825     1.38518474     0.00007259    -0.00009147     0.00106068
H         0.93620934    -0.05302923    -0.56493296     0.00088101    -0.00017727    -0.00132870
H         0.87373493    -0.06150872     1.89794115     0.00015174    -0.00005270    -0.00009545
H        -0.93170240     0.00410314     1.81464853    -0.00153791     0.00017636     0.00039382
H        -1.04332550     0.04773997    -0.57167107    -0.00120454    -0.00019797    -0.00086777
     6
  Step:    18            Position(A)                                  Velocity(au)
C        -0.03622074     0.03362072    -0.08399746     0.00005131     0.00012063    -0.00095461
N        -0.04363256    -0.07241611     1.39084196     0.00008504    -0.00008570     0.00095468
H         0.94132510    -0.05406698    -0.57261870     0.00092993    -0.00019123    -0.00139990
H         0.87436431    -0.06177469     1.89739408     0.00007834    -0.00004201    -0.00009521
H        -0.94068564     0.00511699     1.81724746    -0.00163711     0.00018288     0.00051858
H        -1.05000080     0.04663337    -0.57669480    -0.00116439    -0.00019621    -0.00091485
     6
  Step:    19            Position(A)                                  Velocity(au)
C        -0.03595294     0.03427877    -0.08902390     0.00004438     0.00011402    -0.00083973
N        -0.04312518    -0.07288147     1.39591495     0.00009380    -0.00008017     0.00085566
H         0.94666136    -0.05517860    -0.58066735     0.00096234    -0.00020417    -0.00146234
H         0.87461541    -0.06198087     1.89687102     0.00001726    -0.00003151    -0.00008743
H        -0.95010292     0.00615864     1.82047713    -0.00169716     0.00018675     0.00062016
H        -1.05641283     0.04553462    -0.58195358    -0.00111473    -0.00019574    -0.00095471
     6
  Step:    20            Position(A)                                  Velocity(au)
C        -0.03572280     0.03490014    -0.09342035     0.00003799     0.00010776    -0.00073154
N        -0.04257998    -0.07331567     1.40044361     0.00009874    -0.00007474     0.00076221
H         0.95212379    -0.05635806    -0.58902805     0.00097680    -0.00021579    -0.00151398
H         0.87455798    -0.06212826     1.89641300    -0.00003175    -0.00002109    -0.00007245
H        -0.95972999     0.00721255     1.82420644    -0.00171554     0.00018759     0.00069834
H        -1.06250951     0.04443688    -0.58740790    -0.00105445    -0.00019618    -0.00098671
     6
  Step:    21            Position(A)                                  Velocity(au)
C        -0.03552703     0.03548678    -0.09722476     0.00003217     0.00010176    -0.00062931
N        -0.04201821    -0.07371935     1.40445955     0.00009994    -0.00006937     0.00067359
H         0.95761170    -0.05759774    -0.59763962     0.00097290    -0.00022592    -0.00155382
H         0.87425952    -0.06221729     1.89605880    -0.00006902    -0.00001071    -0.00005080
H        -0.96933472     0.00826157     1.82830578    -0.00169244     0.00018529     0.00075378
H        -1.06823361     0.04333538    -0.59301496    -0.00098354    -0.00019728    -0.00101074
     6
  Step:    22            Position(A)                                  Velocity(au)
C        -0.03536236     0.03604015    -0.10047077     0.00002692     0.00009597    -0.00053269
N        -0.04146036    -0.07409283     1.40799013     0.00009760    -0.00006404     0.00058948
H         0.96302365    -0.05888919    -0.60643621     0.00095110    -0.00023451    -0.00158174
H         0.87378470    -0.06224824     1.89584390    -0.00009515    -0.00000036    -0.00002315
H        -0.97869125     0.00928845     1.83265140    -0.00163026     0.00017997     0.00078792
H        -1.07352859     0.04222665    -0.59873174    -0.00090269    -0.00019891    -0.00102715
     6
  Step:    23            Position(A)                                  Velocity(au)
C        -0.03522558     0.03656149    -0.10318987     0.00002223     0.00009040    -0.00044149
N        -0.04092533    -0.07443642     1.41106063     0.00009206    -0.00005876     0.00050971
H         0.96826226    -0.06022382    -0.61535208     0.00091253    -0.00024160    -0.00159823
H         0.87319403    -0.06222131     1.89579958    -0.00011100     0.00000996     0.00000968
H        -0.98759061     0.01027693     1.83712905    -0.00153286     0.00017191     0.00080279
H        -1.07834205     0.04110794    -0.60451710    -0.00081296    -0.00020100    -0.00103654
     6
  Step:    24            Position(A)                                  Velocity(au)
C        -0.03511350     0.03705198    -0.10541222     0.00001811     0.00008505    -0.00035551
N        -0.04042992    -0.07475049     1.41369515     0.00008375    -0.00005356     0.00043411
H         0.97323732    -0.06159338    -0.62432477     0.00085867    -0.00024730    -0.00160417
H         0.87254231    -0.06213679     1.89595222    -0.00011771     0.00002022     0.00004678
H        -0.99584821     0.01121255     1.84163681    -0.00140495     0.00016145     0.00080071
H        -1.08262786     0.03997686    -0.61033344    -0.00071560    -0.00020353    -0.00103967
     6
  Step:    25            Position(A)                                  Velocity(au)
C        -0.03502303     0.03751285    -0.10716678     0.00001451     0.00007991    -0.00027451
N        -0.03998846    -0.07503557     1.41591687     0.00007310    -0.00004847     0.00036252
H         0.97786780    -0.06299025    -0.63329715     0.00079123    -0.00025175    -0.00160062
H         0.87187723    -0.06199508     1.89632287    -0.00011666     0.00003043     0.00008719
H        -1.00330709     0.01208299     1.84608620    -0.00125152     0.00014900     0.00078412
H        -1.08634713     0.03883117    -0.61614744    -0.00061188    -0.00020648    -0.00103736
     6
  Step:    26            Position(A)                                  Velocity(au)
C        -0.03495126     0.03794535    -0.10848103     0.00001143     0.00007501    -0.00019819
N        -0.03961268    -0.07529230     1.41774786     0.00006059    -0.00004350     0.00029471
H         0.98208262    -0.06440769    -0.64221833     0.00071190    -0.00025509    -0.00158867
H         0.87123818    -0.06179665     1.89692695    -0.00010938     0.00004055     0.00012992
H        -1.00983908     0.01287826     1.85040255    -0.00107760     0.00013498     0.00075543
H        -1.08946815     0.03766864    -0.62193028    -0.00050300    -0.00020985    -0.00103039
     6
  Step:    27            Position(A)                                  Velocity(au)
C        -0.03489540     0.03835076    -0.10938069     0.00000882     0.00007033    -0.00012619
N        -0.03931169    -0.07552146     1.41920891     0.00004665    -0.00003867     0.00023039
H         0.98582008    -0.06583980    -0.65104346     0.00062222    -0.00025749    -0.00156931
H         0.87065544    -0.06154208     1.89777410    -0.00009752     0.00005059     0.00017393
H        -1.01534447     0.01359074     1.85452472    -0.00088801     0.00011977     0.00071693
H        -1.09196590     0.03648701    -0.62765743    -0.00039004    -0.00021366    -0.00101943
     6
  Step:    28            Position(A)                                  Velocity(au)
C        -0.03485280     0.03873035    -0.10988947     0.00000667     0.00006588    -0.00005814
N        -0.03909205    -0.07572389     1.42031925     0.00003172    -0.00003399     0.00016928
H         0.98902725    -0.06728150    -0.65973333     0.00052367    -0.00025906    -0.00154341
H         0.87014972    -0.06123204     1.89886819    -0.00008281     0.00006051     0.00021821
H        -1.01975019     0.01421504     1.85840418    -0.00068720     0.00010376     0.00067071
H        -1.09382134     0.03528397    -0.63330812    -0.00027395    -0.00021790    -0.00100508
     6
  Step:    29            Position(A)                                  Velocity(au)
C        -0.03482102     0.03908536    -0.11002894     0.00000494     0.00006163     0.00000637
N        -0.03895798    -0.07590050     1.42109646     0.00001621    -0.00002947     0.00011106
H         0.99165937    -0.06872849    -0.66825365     0.00041756    -0.00025993    -0.00151172
H         0.86973208    -0.06086730     1.90020731    -0.00006693     0.00007031     0.00026173
H        -1.02300729     0.01474776     1.86200361    -0.00047917     0.00008728     0.00061861
H        -1.09502069     0.03405726    -0.63886483    -0.00015560    -0.00022256    -0.00098781
     6
  Step:    30            Position(A)                                  Velocity(au)
C        -0.03479775     0.03941697    -0.10981853     0.00000361     0.00005759     0.00006768
N        -0.03891148    -0.07605223     1.42155647     0.00000048    -0.00002511     0.00005545
H         0.99367899    -0.07017718    -0.67657430     0.00030511    -0.00026020    -0.00147484
H         0.86940411    -0.06044877     1.90178392    -0.00005154     0.00007995     0.00030348
H        -1.02508823     0.01518734     1.86529565    -0.00026749     0.00007062     0.00056226
H        -1.09555479     0.03280459    -0.64431264    -0.00003576    -0.00022762    -0.00096800
     6
  Step:    31            Position(A)                                  Velocity(au)
C        -0.03478087     0.03972630    -0.10927562     0.00000264     0.00005372     0.00012615
N        -0.03895262    -0.07618001     1.42171361    -0.00001512    -0.00002091     0.00000218
H         0.99505525    -0.07162451    -0.68466843     0.00018745    -0.00025996    -0.00143323
H         0.86915840    -0.05997750     1.90358502    -0.00003821     0.00008939     0.00034249
H        -1.02598445     0.01553375     1.86826156    -0.00005546     0.00005406     0.00050313
H        -1.09541865     0.03152382    -0.64963863     0.00008487    -0.00023306    -0.00094593
     6
  Step:    32            Position(A)                                  Velocity(au)
C        -0.03476842     0.04001438    -0.10841577     0.00000201     0.00005003     0.00018204
N        -0.03907959    -0.07628479     1.42158076    -0.00003027    -0.00001688    -0.00004897
H         0.99576339    -0.07306795    -0.69251180     0.00006561    -0.00025928    -0.00138725
H         0.86897923    -0.05945476     1.90559241    -0.00002834     0.00009860     0.00037782
H        -1.02570495     0.01578845     1.87089041     0.00015382     0.00003784     0.00044253
H        -1.09461108     0.03021294    -0.65483137     0.00020556    -0.00023883    -0.00092179
     6
  Step:    33            Position(A)                                  Velocity(au)
C        -0.03475855     0.04028216    -0.10725299     0.00000170     0.00004649     0.00023559
N        -0.03928891    -0.07636751     1.42116950    -0.00004466    -0.00001300    -0.00009821
H         0.99578423    -0.07450531    -0.70008207    -0.00005940    -0.00025820    -0.00133715
H         0.86884356    -0.05888200     1.90778295    -0.00002316     0.00010752     0.00040859
H        -1.02427536     0.01595422     1.87317847     0.00035734     0.00002222     0.00038174
H        -1.09313465     0.02887015    -0.65988052     0.00032562    -0.00024489    -0.00089572
     6
  Step:    34            Position(A)                                  Velocity(au)
C        -0.03474956     0.04053052    -0.10580007     0.00000169     0.00004309     0.00028694
N        -0.03957548    -0.07642911     1.42049037    -0.00005802    -0.00000929    -0.00014567
H         0.99510392    -0.07593473    -0.70735820    -0.00018657    -0.00025677    -0.00128312
H         0.86872214    -0.05826097     1.91012903    -0.00002367     0.00011610     0.00043402
H        -1.02173744     0.01603517     1.87512884     0.00055211     0.00000743     0.00032197
H        -1.09099575     0.02749394    -0.66477649     0.00044427    -0.00025116    -0.00086782
     6
  Step:    35            Position(A)                                  Velocity(au)
C        -0.03473983     0.04076028    -0.10406893     0.00000195     0.00003982     0.00033620
N        -0.03993270    -0.07647057     1.41955307    -0.00007006    -0.00000575    -0.00019146
H         0.99371392    -0.07735455    -0.71432012    -0.00031490    -0.00025502    -0.00122528
H         0.86858086    -0.05759373     1.91259899    -0.00003065     0.00012427     0.00045338
H        -1.01814889     0.01603671     1.87675121     0.00073517    -0.00000628     0.00026443
H        -1.08820487     0.02608314    -0.66951024     0.00056068    -0.00025758    -0.00083817
     6
  Step:    36            Position(A)                                  Velocity(au)
C        -0.03472787     0.04097218    -0.10207106     0.00000249     0.00003667     0.00038338
N        -0.04035257    -0.07649289     1.41836680    -0.00008054    -0.00000240    -0.00023561
H         0.99161119    -0.07876327    -0.72094849    -0.00044329    -0.00025296    -0.00116377
H         0.86838219    -0.05688265     1.91515771    -0.00004455     0.00013196     0.00046610
H        -1.01358330     0.01596551     1.87806180     0.00090351    -0.00001869     0.00021031
H        -1.08477690     0.02463700    -0.67407307     0.00067397    -0.00026405    -0.00080682
     6
  Step:    37            Position(A)                                  Velocity(au)
C        -0.03471227     0.04116694    -0.09981785     0.00000326     0.00003365     0.00042842
N        -0.04082581    -0.07649714     1.41694047    -0.00008923     0.00000076    -0.00027813
H         0.98879851    -0.08015955    -0.72722463    -0.00057058    -0.00025063    -0.00109873
H         0.86808682    -0.05613052     1.91776730    -0.00006556     0.00013909     0.00047172
H        -1.00813026     0.01582950     1.87908329     0.00105418    -0.00002955     0.00016082
H        -1.08073155     0.02315522    -0.67845665     0.00078314    -0.00027048    -0.00077384
     6
  Step:    38            Position(A)                                  Velocity(au)
C        -0.03469173     0.04134526    -0.09732100     0.00000426     0.00003075     0.00047121
N        -0.04134194    -0.07648446     1.41528303    -0.00009593     0.00000370    -0.00031896
H         0.98528486    -0.08154212    -0.73313061    -0.00069556    -0.00024803    -0.00103033
H         0.86765524    -0.05534048     1.92038783    -0.00009356     0.00014560     0.00046994
H        -1.00189518     0.01563789     1.87984489     0.00118421    -0.00003863     0.00011716
H        -1.07609381     0.02163804    -0.68265299     0.00088716    -0.00027677    -0.00073932
     6
  Step:    39            Position(A)                                  Velocity(au)
C        -0.03466504     0.04150786    -0.09459287     0.00000547     0.00002797     0.00051158
N        -0.04188947    -0.07645609     1.41340367    -0.00010044     0.00000641    -0.00035801
H         0.98108584    -0.08290984    -0.73864943    -0.00081691    -0.00024519    -0.00095882
H         0.86704939    -0.05451607     1.92297823    -0.00012811     0.00015140     0.00046065
H        -0.99499923     0.01540112     1.88038242     0.00129080    -0.00004572     0.00008052
H        -1.07089430     0.02008625    -0.68665457     0.00098492    -0.00028281    -0.00070337
     6
  Step:    40            Position(A)                                  Velocity(au)
C        -0.03463111     0.04165546    -0.09164676     0.00000685     0.00002532     0.00054933
N        -0.04245603    -0.07641339     1.41131215    -0.00010266     0.00000885    -0.00039514
H         0.97622403    -0.08426170    -0.74376545    -0.00093330    -0.00024215    -0.00088453
H         0.86623428    -0.05366120     1.92549718    -0.00016850     0.00015644     0.00044391
H        -0.98757823     0.01513081     1.88073802     0.00137145    -0.00005061     0.00005201
H        -1.06516952     0.01850123    -0.69045452     0.00107530    -0.00028850    -0.00066617
     6
  Step:    41            Position(A)                                  Velocity(au)
C        -0.03458899     0.04178885    -0.08849714     0.00000840     0.00002282     0.00058422
N        -0.04302867    -0.07635784     1.40901890    -0.00010250     0.00001102    -0.00043020
H         0.97072932    -0.08559685    -0.74846482    -0.00104335    -0.00023893    -0.00080790
H         0.86517955    -0.05278009     1.92790419    -0.00021375     0.00016066     0.00042000
H        -0.97978062     0.01483956     1.88095954     0.00142420    -0.00005315     0.00003255
H        -1.05896198     0.01688490    -0.69404688     0.00115723    -0.00029373    -0.00062793
     6
  Step:    42            Position(A)                                  Velocity(au)
C        -0.03453786     0.04190889    -0.08515979     0.00001007     0.00002049     0.00061601
N        -0.04359419    -0.07629102     1.40653529    -0.00009996     0.00001289    -0.00046301
H         0.96463899    -0.08691468    -0.75273610    -0.00114573    -0.00023560    -0.00072945
H         0.86386088    -0.05187724     1.93016071    -0.00026263     0.00016403     0.00038938
H        -0.97176430     0.01454065     1.88109943     0.00144779    -0.00005326     0.00002282
H        -1.05231998     0.01523974    -0.69742685     0.00122969    -0.00029842    -0.00058891
     6
  Step:    43            Position(A)                                  Velocity(au)
C        -0.03447707     0.04201653    -0.08165181     0.00001184     0.00001834     0.00064448
N        -0.04413951    -0.07621464     1.40387369    -0.00009512     0.00001443    -0.00049339
H         0.95799753    -0.08821489    -0.75657079    -0.00123919    -0.00023222    -0.00064984
H         0.86226113    -0.05095729     1.93223115    -0.00031375     0.00016654     0.00035274
H        -0.96369220     0.01424773     1.88121311     0.00144186    -0.00005092     0.00002316
H        -1.04529720     0.01356868    -0.70059111     0.00129181    -0.00030252    -0.00054945
     6
  Step:    44            Position(A)                                  Velocity(au)
C        -0.03440614     0.04211286    -0.07799155     0.00001368     0.00001639     0.00066946
N        -0.04465217    -0.07613048     1.40104759    -0.00008813     0.00001565    -0.00052115
H         0.95085612    -0.08949757    -0.75996393    -0.00132264    -0.00022890    -0.00056979
H         0.86037124    -0.05002494     1.93408399    -0.00036560     0.00016819     0.00031090
H        -0.95572728     0.01397430     1.88135698     0.00140704    -0.00004621     0.00003351
H        -1.03795190     0.01187500    -0.70353804     0.00134291    -0.00030597    -0.00050989
     6