 Fermi distribution function

Calculation with static geometry


********************************************************************************
 iSCC Total electronic   Diff electronic      SCC error    
   10   -0.53448524E+01   -0.56816774E-09    0.69390408E-06
********************************************************************************

 Total charge:     1.00000000

 Atomic gross charges (e)
 Atom           Charge
    1       0.26001394
    2      -0.14017754
    3       0.17709582
    4       0.26390105
    5       0.26460957
    6       0.17455716

Nr. of electrons (up):     12.00000000
Atom populations (up)
 Atom       Population
    1       3.73998606
    2       5.14017754
    3       0.82290418
    4       0.73609895
    5       0.73539043
    6       0.82544284

l-shell populations (up)
 Atom Sh.   l       Population
    1   1   0       1.35924267
    1   2   1       2.38074339
    2   1   0       1.49092385
    2   2   1       3.64925370
    3   1   0       0.82290418
    4   1   0       0.73609895
    5   1   0       0.73539043
    6   1   0       0.82544284

Orbital populations (up)
 Atom Sh.   l   m       Population  Label
    1   1   0   0       1.35924267  s
    1   2   1  -1       0.48305873  p_y
    1   2   1   0       0.88151425  p_z
    1   2   1   1       1.01617041  p_x
    2   1   0   0       1.49092385  s
    2   2   1  -1       1.36418806  p_y
    2   2   1   0       1.12309440  p_z
    2   2   1   1       1.16197124  p_x
    3   1   0   0       0.82290418  s
    4   1   0   0       0.73609895  s
    5   1   0   0       0.73539043  s
    6   1   0   0       0.82544284  s

Fermi level:                        -0.5235974372 H          -14.2478 eV
Band energy:                        -8.8408868912 H         -240.5728 eV
TS:                                  0.0000000000 H            0.0000 eV
Band free energy (E-TS):            -8.8408868912 H         -240.5728 eV
Extrapolated E(0K):                 -8.8408868912 H         -240.5728 eV
Input / Output electrons (q):     12.0000000000     12.0000000000

Energy H0:                          -5.4818521331 H         -149.1688 eV
Energy SCC:                          0.1369997732 H            3.7280 eV
Total Electronic energy:            -5.3448523600 H         -145.4408 eV
Repulsive energy:                    0.1636965674 H            4.4544 eV
Total energy:                       -5.1811557926 H         -140.9864 eV
Extrapolated to 0:                  -5.1811557926 H         -140.9864 eV
Total Mermin free energy:           -5.1811557926 H         -140.9864 eV
Force related energy:               -5.1811557926 H         -140.9864 eV

SCC converged

Excitation Energy:                   0.1580628002 H            4.3011 eV

Total Forces
    1     -0.011147541609     -0.009764866960      0.007139287081
    2      0.003306575260      0.008573591647     -0.002431980303
    3      0.014503862884      0.005026616078     -0.009241109600
    4     -0.004043499365     -0.003074643336      0.001154513046
    5     -0.001456512494     -0.003091928438      0.005790733118
    6     -0.001162884676      0.002331231009     -0.002411443341

Maximal derivative component:        0.145039E-01 au


