     6
  Step:   120            Position(A)                                  Velocity(au)
C        -0.06220717    -0.07884546    -0.02934798    -0.00011939    -0.00006874    -0.00006748
N        -0.04943455     0.00345023     1.34765829    -0.00005500    -0.00001600    -0.00007616
H         0.91543556    -0.00171408    -0.62588801     0.00011741    -0.00053075     0.00045204
H         0.87321048     0.00274662     1.85105773    -0.00013053     0.00122893     0.00027192
H        -0.83792097    -0.48732840     1.82036911     0.00100509    -0.00066991     0.00024450
H        -0.73543049     0.70810486    -0.53131072     0.00119504     0.00101321     0.00089404
