     6
  Step:     0            Position(A)                                  Velocity(au)
C        -0.04184163    -0.00298991     0.01179946    -0.00002513    -0.00005210     0.00028121
N        -0.03885826    -0.04056576     1.30499301    -0.00014401     0.00009836    -0.00015535
H         0.92778398    -0.00304741    -0.47571361     0.00016613     0.00002566    -0.00019480
H         0.81933655    -0.16727532     1.80963923     0.00104929    -0.00052419     0.00045481
H        -0.92797521    -0.08052664     1.85761354     0.00120438    -0.00038962    -0.00103581
H        -0.99350789     0.18041531    -0.57474310    -0.00011910     0.00014215    -0.00041628
     6
  Step:     1            Position(A)                                  Velocity(au)
C        -0.04200286    -0.00326529     0.01296692    -0.00003359    -0.00004834     0.00014451
N        -0.03968627    -0.04003347     1.30444533    -0.00015625     0.00009643    -0.00004420
H         0.92881728    -0.00288510    -0.47694597     0.00020797     0.00003202    -0.00025334
H         0.82546028    -0.17018905     1.81239719     0.00117134    -0.00054037     0.00054289
H        -0.92128059    -0.08264882     1.85190409     0.00122679    -0.00038901    -0.00104119
H        -0.99393183     0.18117362    -0.57685986    -0.00003453     0.00013333    -0.00035606
     6
  Step:     2            Position(A)                                  Velocity(au)
C        -0.04220903    -0.00351864     0.01338007    -0.00004147    -0.00004405     0.00000617
N        -0.04056732    -0.03951097     1.30450957    -0.00016329     0.00009484     0.00006772
H         0.93005875    -0.00269719    -0.47848472     0.00024218     0.00003487    -0.00030660
H         0.83214880    -0.17318597     1.81557742     0.00125572    -0.00055474     0.00060916
H        -0.91455642    -0.08478172     1.84622487     0.00121385    -0.00039394    -0.00102396
H        -0.99388560     0.18187366    -0.57863770     0.00005160     0.00012083    -0.00029316
     6
  Step:     3            Position(A)                                  Velocity(au)
C        -0.04245640    -0.00374710     0.01303444    -0.00004858    -0.00003930    -0.00013219
N        -0.04147228    -0.03899618     1.30518598    -0.00016493     0.00009360     0.00017897
H         0.93146611    -0.00250374    -0.48029935     0.00026867     0.00003434    -0.00035408
H         0.83919458    -0.17625647     1.81905985     0.00130239    -0.00056702     0.00065370
H        -0.90800416    -0.08695747     1.84070460     0.00116284    -0.00040456    -0.00098239
H        -0.99336745     0.18249522    -0.58006625     0.00013699     0.00010498    -0.00022906
     6
  Step:     4            Position(A)                                  Velocity(au)
C        -0.04274040    -0.00394853     0.01193423    -0.00005479    -0.00003426    -0.00026899
N        -0.04237121    -0.03848729     1.30646706    -0.00016107     0.00009260     0.00028813
H         0.93299727    -0.00232165    -0.48235739     0.00028746     0.00003128    -0.00039552
H         0.84639333    -0.17938767     1.82272709     0.00131226    -0.00057636     0.00067726
H        -0.90183818    -0.08920646     1.83548022     0.00107181    -0.00042016    -0.00091518
H        -0.99238729     0.18302186    -0.58114303     0.00021965     0.00008668    -0.00016518
     6
  Step:     5            Position(A)                                  Velocity(au)
C        -0.04305573    -0.00412188     0.01009216    -0.00005996    -0.00002912    -0.00040254
N        -0.04323411    -0.03798325     1.30833763    -0.00015176     0.00009171     0.00039371
H         0.93461049    -0.00216161    -0.48462568     0.00029863     0.00002679    -0.00043085
H         0.85354863    -0.18256093     1.82646805     0.00128696    -0.00058169     0.00068116
H        -0.89628021    -0.09155335     1.83069398     0.00094006    -0.00043962    -0.00082173
H        -0.99096487     0.18344339    -0.58187311     0.00029773     0.00006707    -0.00010295
     6
  Step:     6            Position(A)                                  Velocity(au)
C        -0.04339646    -0.00426713     0.00752973    -0.00006396    -0.00002403    -0.00053109
N        -0.04403169    -0.03748381     1.31077492    -0.00013721     0.00009079     0.00049424
H         0.93626476    -0.00202850    -0.48707166     0.00030236     0.00002176    -0.00046024
H         0.86047491    -0.18575240     1.83018012     0.00122866    -0.00058221     0.00066701
H        -0.89155223    -0.09401666     1.82648901     0.00076854    -0.00046185    -0.00070255
H        -0.98912961     0.18375570    -0.58226951     0.00036929     0.00004713    -0.00004389
     6
  Step:     7            Position(A)                                  Velocity(au)
C        -0.04375591    -0.00438500     0.00427784    -0.00006664    -0.00001912    -0.00065271
N        -0.04473628    -0.03698933     1.31374856    -0.00011784     0.00008973     0.00058823
H         0.93792072    -0.00192337    -0.48966430     0.00029907     0.00001673    -0.00048397
H         0.86699996    -0.18893496     1.83377043     0.00114009    -0.00057747     0.00063671
H        -0.88786630    -0.09660968     1.82300254     0.00056033    -0.00048592    -0.00055954
H        -0.98692190     0.18395935    -0.58235359     0.00043213     0.00002763     0.00001040
     6
  Step:     8            Position(A)                                  Velocity(au)
C        -0.04412663    -0.00447667     0.00037749    -0.00006786    -0.00001446    -0.00076536
N        -0.04532294    -0.03650057     1.31722053    -0.00009428     0.00008847     0.00067415
H         0.93954187    -0.00184522    -0.49237489     0.00028938     0.00001196    -0.00050249
H         0.87296768    -0.19208017     1.83715702     0.00102456    -0.00056734     0.00059239
H        -0.88541231    -0.09934121     1.82035774     0.00032101    -0.00051091    -0.00039626
H        -0.98439449     0.18405842    -0.58215556     0.00048382     0.00000915     0.00005823
     6
  Step:     9            Position(A)                                  Velocity(au)
C        -0.04450042    -0.00454365    -0.00411951    -0.00006749    -0.00001010    -0.00086690
N        -0.04577069    -0.03601862     1.32114518    -0.00006740     0.00008696     0.00075055
H         0.94109571    -0.00179216    -0.49517750     0.00027412     0.00000758    -0.00051629
H         0.87824117    -0.19515965     1.84026996     0.00088604    -0.00055192     0.00053640
H        -0.88434423    -0.10221525     1.81865494     0.00005878    -0.00053581    -0.00021788
H        -0.98161356     0.18405975    -0.58171471     0.00052186    -0.00000780     0.00009793
     6
  Step:    10            Position(A)                                  Velocity(au)
C        -0.04486837    -0.00458771    -0.00915014    -0.00006542    -0.00000610    -0.00095518
N        -0.04606366    -0.03554489     1.32546940    -0.00003827     0.00008511     0.00081601
H         0.94255459    -0.00176193    -0.49804913     0.00025426     0.00000363    -0.00052584
H         0.88270564    -0.19814604     1.84305230     0.00072909    -0.00053150     0.00047131
H        -0.88476628    -0.10523004     1.81796318    -0.00021575    -0.00055941    -0.00003105
H        -0.97865896     0.18397271    -0.58107928     0.00054384    -0.00002276     0.00012791
     6
  Step:    11            Position(A)                                  Velocity(au)
C        -0.04522102    -0.00461087    -0.01464024    -0.00006159    -0.00000250    -0.00102824
N        -0.04619223    -0.03508113     1.33013312    -0.00000817     0.00008289     0.00086936
H         0.94389629    -0.00175220    -0.50096937     0.00023088     0.00000012    -0.00053159
H         0.88627170    -0.20101385     1.84546116     0.00055899    -0.00050657     0.00039990
H        -0.88672062    -0.10837681     1.81831294    -0.00049011    -0.00058031     0.00015649
H        -0.97562342     0.18380905    -0.58030580     0.00054771    -0.00003532     0.00014684
     6
  Step:    12            Position(A)                                  Velocity(au)
C        -0.04554859    -0.00461535    -0.02050564    -0.00005601     0.00000066    -0.00108453
N        -0.04615385    -0.03462946     1.33507031     0.00002156     0.00008024     0.00090972
H         0.94510431    -0.00176058    -0.50391981     0.00020506    -0.00000293    -0.00053384
H         0.88887891    -0.20374039     1.84746871     0.00038161    -0.00047781     0.00032516
H        -0.89017888    -0.11163874     1.81969137    -0.00075092    -0.00059703     0.00033653
H        -0.97261025     0.18358267    -0.57945764     0.00053205    -0.00004512     0.00015375
     6
  Step:    13            Position(A)                                  Velocity(au)
C        -0.04584143    -0.00460358    -0.02665432    -0.00004875     0.00000335    -0.00112314
N        -0.04595340    -0.03419225     1.34021067     0.00004955     0.00007714     0.00093669
H         0.94616787    -0.00178464    -0.50688308     0.00017788    -0.00000551    -0.00053279
H         0.89049904    -0.20630689     1.84906320     0.00020325    -0.00044618     0.00025018
H        -0.89503907    -0.11499054     1.82204088    -0.00098520    -0.00060822     0.00050119
H        -0.96972953     0.18330923    -0.57860259     0.00049636    -0.00005192     0.00014825
     6
  Step:    14            Position(A)                                  Velocity(au)
C        -0.04609043    -0.00457813    -0.03298978    -0.00006956     0.00000965    -0.00198965
N        -0.04560305    -0.03377203     1.34548199     0.00012972     0.00012801     0.00165310
H         0.94708154    -0.00182188    -0.50984195     0.00026161    -0.00001326    -0.00091952
H         0.89113814    -0.20869985     1.85024956     0.00005267    -0.00071803     0.00030965
H        -0.90112979    -0.11839930     1.82526228    -0.00205541    -0.00106579     0.00111966
H        -0.96709299     0.18300555    -0.57780984     0.00076739    -0.00009676     0.00022707
     6
  Step:    15            Position(A)                                  Velocity(au)
C        -0.04646312    -0.00454444    -0.04377169    -0.00006136     0.00000214    -0.00181485
N        -0.04481904    -0.03306707     1.35446817     0.00014436     0.00012098     0.00151869
H         0.94876720    -0.00185010    -0.51523718     0.00033259     0.00000255    -0.00098182
H         0.89100600    -0.21254959     1.85180307    -0.00009018    -0.00064346     0.00024509
H        -0.91302738    -0.12434260     1.83186052    -0.00211427    -0.00103113     0.00119059
H        -0.96320263     0.18262924    -0.57696344     0.00059691    -0.00003461     0.00006783
     6
  Step:    16            Position(A)                                  Velocity(au)
C        -0.04678607    -0.00455385    -0.05356504    -0.00005144    -0.00000542    -0.00162084
N        -0.04396637    -0.03240048     1.36269959     0.00015199     0.00011295     0.00136962
H         0.95085217    -0.00179292    -0.52097302     0.00039594     0.00001666    -0.00102562
H         0.89011572    -0.21599480     1.85302815    -0.00021146    -0.00056790     0.00019121
H        -0.92509955    -0.13008939     1.83876017    -0.00209092    -0.00098322     0.00121135
H        -0.96032575     0.18261318    -0.57704085     0.00040737     0.00002946    -0.00009563
     6
  Step:    17            Position(A)                                  Velocity(au)
C        -0.04705027    -0.00460632    -0.06227192    -0.00004086    -0.00001286    -0.00143253
N        -0.04308425    -0.03177784     1.37010099     0.00015461     0.00010537     0.00122615
H         0.95328640    -0.00165993    -0.52694359     0.00045309     0.00002910    -0.00106187
H         0.88859240    -0.21903164     1.85398557    -0.00031140    -0.00049941     0.00015070
H        -0.93689307    -0.13556503     1.84568690    -0.00201623    -0.00093435     0.00120016
H        -0.95855289     0.18296549    -0.57805501     0.00021293     0.00009373    -0.00025797
     6
  Step:    18            Position(A)                                  Velocity(au)
C        -0.04725287    -0.00470078    -0.06992979    -0.00003028    -0.00002022    -0.00126350
N        -0.04220011    -0.03119680     1.37670682     0.00015409     0.00009910     0.00109943
H         0.95602809    -0.00146047    -0.53310353     0.00050646     0.00004027    -0.00109985
H         0.88655834    -0.22169996     1.85474967    -0.00039338    -0.00044203     0.00012399
H        -0.94813231    -0.14076310     1.85247047    -0.00191465    -0.00089261     0.00117224
H        -0.95789330     0.18368392    -0.57998786     0.00002102     0.00015820    -0.00041848
     6
  Step:    19            Position(A)                                  Velocity(au)
C        -0.04739478    -0.00483639    -0.07664940    -0.00001993    -0.00002757    -0.00111553
N        -0.04133081    -0.03065018     1.38261150     0.00015132     0.00009431     0.00099079
H         0.95904946    -0.00120164    -0.53945886     0.00055684     0.00005057    -0.00114306
H         0.88411611    -0.22406153     1.85539647    -0.00046020    -0.00039588     0.00011024
H        -0.95867997    -0.14572213     1.85902593    -0.00179658    -0.00085990     0.00113472
H        -0.95831372     0.18476563    -0.58281695    -0.00016539     0.00022326    -0.00057761
     6
  Step:    20            Position(A)                                  Velocity(au)
C        -0.04747837    -0.00501272    -0.08255007    -0.00000993    -0.00003492    -0.00098426
N        -0.04048812    -0.03012989     1.38791595     0.00014639     0.00009070     0.00089634
H         0.96232780    -0.00088830    -0.54603531     0.00060277     0.00006020    -0.00118990
H         0.88135191    -0.22617865     1.85599690    -0.00051262    -0.00035915     0.00010827
H        -0.96845757    -0.15049137     1.86530793    -0.00166238    -0.00083401     0.00108843
H        -0.95976441     0.18620978    -0.58652259    -0.00034376     0.00028862    -0.00073412
     6
  Step:    21            Position(A)                                  Velocity(au)
C        -0.04750650    -0.00522937    -0.08772660    -0.00000039    -0.00004216    -0.00086478
N        -0.03968328    -0.02962937     1.39269920     0.00013911     0.00008792     0.00081154
H         0.96583327    -0.00052416    -0.55285034     0.00064174     0.00006918    -0.00123677
H         0.87834695    -0.22810356     1.85661495    -0.00055005    -0.00032993     0.00011694
H        -0.97738898    -0.15510836     1.87127547    -0.00150984    -0.00081181     0.00103219
H        -0.96218252     0.18801385    -0.59107901    -0.00051029     0.00035315    -0.00088493
     6
  Step:    22            Position(A)                                  Velocity(au)
C        -0.04748270    -0.00548543    -0.09224618     0.00000850    -0.00004916    -0.00075370
N        -0.03892844    -0.02914409     1.39701504     0.00012938     0.00008568     0.00073308
H         0.96952308    -0.00011265    -0.55990225     0.00067131     0.00007752    -0.00128036
H         0.87518465    -0.22987784     1.85730810    -0.00057181    -0.00030680     0.00013524
H        -0.98538618    -0.15959359     1.87688100    -0.00133828    -0.00079086     0.00096540
H        -0.96548587     0.19016941    -0.59644457    -0.00066041     0.00041542    -0.00102630
     6
  Step:    23            Position(A)                                  Velocity(au)
C        -0.04741138    -0.00577929    -0.09615696     0.00001655    -0.00005581    -0.00064915
N        -0.03823616    -0.02867105     1.40089894     0.00011729     0.00008379     0.00065901
H         0.97334208     0.00034290    -0.56717156     0.00068970     0.00008524    -0.00131834
H         0.87195108    -0.23153518     1.85812767    -0.00057774    -0.00028887     0.00016211
H        -0.99235802    -0.16395440     1.88207374    -0.00114924    -0.00076970     0.00088862
H        -0.96956939     0.19266038    -0.60255851    -0.00078982     0.00047400    -0.00115487
     6
  Step:    24            Position(A)                                  Velocity(au)
C        -0.04729787    -0.00610874    -0.09949641     0.00002358    -0.00006200    -0.00055022
N        -0.03761844    -0.02820827     1.40437537     0.00010308     0.00008216     0.00058823
H         0.97722621     0.00083935    -0.57462655     0.00069581     0.00009240    -0.00134936
H         0.86873203    -0.23310412     1.85911865    -0.00056835    -0.00027552     0.00019639
H        -0.99822177    -0.16819016     1.88680583    -0.00094569    -0.00074758     0.00080321
H        -0.97430720     0.19546343    -0.60934303    -0.00089516     0.00052777    -0.00126802
     6
  Step:    25            Position(A)                                  Velocity(au)
C        -0.04714821    -0.00647108    -0.10229665     0.00002950    -0.00006766    -0.00045649
N        -0.03708598    -0.02775429     1.40746276     0.00008705     0.00008073     0.00052019
H         0.98110636     0.00137398    -0.58222848     0.00068917     0.00009912    -0.00137278
H         0.86560907    -0.23460958     1.86031915    -0.00054484    -0.00026627     0.00023684
H        -1.00291064    -0.17229632     1.89103643    -0.00073128    -0.00072425     0.00071092
H        -0.97955812     0.19854952    -0.61670782    -0.00097431     0.00057589    -0.00136409
     6
  Step:    26            Position(A)                                  Velocity(au)
C        -0.04696884    -0.00686332    -0.10458717     0.00003426    -0.00007278    -0.00036776
N        -0.03664766    -0.02730801     1.41017645     0.00006959     0.00007947     0.00045460
H         0.98491173     0.00194473    -0.58993554     0.00066981     0.00010553    -0.00138849
H         0.86265603    -0.23607348     1.86175982    -0.00050895    -0.00026064     0.00028206
H        -1.00637689    -0.17626689     1.89473385    -0.00050981    -0.00069973     0.00061364
H        -0.98517261     0.20188568    -0.62455513    -0.00102639     0.00061787    -0.00144224
     6
  Step:    27            Position(A)                                  Velocity(au)
C        -0.04676628    -0.00728239    -0.10639603     0.00003787    -0.00007735    -0.00028388
N        -0.03631026    -0.02686850     1.41253014     0.00005110     0.00007835     0.00039131
H         0.98857256     0.00255026    -0.59770566     0.00063812     0.00011176    -0.00139670
H         0.85993591    -0.23751483     1.86346323    -0.00046287    -0.00025812     0.00033059
H        -1.00859342    -0.18009603     1.89787653    -0.00028511    -0.00067419     0.00051329
H        -0.99099905     0.20543679    -0.63278413    -0.00105157     0.00065349    -0.00150233
     6
  Step:    28            Position(A)                                  Velocity(au)
C        -0.04654683    -0.00772520    -0.10775022     0.00004040    -0.00008138    -0.00020467
N        -0.03607825    -0.02643499     1.41453664     0.00003201     0.00007737     0.00033022
H         0.99202199     0.00318996    -0.60549812     0.00059475     0.00011794    -0.00139777
H         0.85749857    -0.23894950     1.86544337    -0.00040910    -0.00025813     0.00038086
H        -1.00955371    -0.18377903     1.90045310    -0.00006083    -0.00064793     0.00041169
H        -0.99688964     0.20916712    -0.64129477    -0.00105093     0.00068276    -0.00154480
     6
  Step:    29            Position(A)                                  Velocity(au)
C        -0.04631634    -0.00818882    -0.10867565     0.00004193    -0.00008490    -0.00012995
N        -0.03595377    -0.02600678     1.41620819     0.00001273     0.00007649     0.00027123
H         0.99519702     0.00386393    -0.61327430     0.00054045     0.00012420    -0.00139213
H         0.85537922    -0.24038994     1.86770538    -0.00035036    -0.00026004     0.00043130
H        -1.00927092    -0.18731281     1.90246200     0.00015960    -0.00062128     0.00031056
H        -1.00270452     0.21304151    -0.64999046    -0.00102615     0.00070587    -0.00157043
     6
  Step:    30            Position(A)                                  Velocity(au)
C        -0.04607998    -0.00867049    -0.10919704     0.00004259    -0.00008795    -0.00005949
N        -0.03593657    -0.02558333     1.41755654    -0.00000632     0.00007571     0.00021427
H         0.99803932     0.00457278    -0.62099805     0.00047609     0.00013061    -0.00138022
H         0.85359772    -0.24184478     1.87024548    -0.00028938    -0.00026315     0.00048031
H        -1.00777674    -0.19069633     1.90391085     0.00037293    -0.00059462     0.00021149
H        -1.00831479     0.21702627    -0.65877985    -0.00097936     0.00072314    -0.00158024
     6
  Step:    31            Position(A)                                  Velocity(au)
C        -0.04584227    -0.00916768    -0.10933776     0.00004252    -0.00009057     0.00000694
N        -0.03602411    -0.02516418     1.41859295    -0.00002472     0.00007500     0.00015924
H         1.00049580     0.00531752    -0.62863575     0.00040264     0.00013722    -0.00136246
H         0.85215851    -0.24331873     1.87305112    -0.00022889    -0.00026674     0.00052634
H        -1.00512031    -0.19393073     1.90481583     0.00057610    -0.00056835     0.00011598
H        -1.01360451     0.22108979    -0.66757809    -0.00091293     0.00073494    -0.00157543
     6
  Step:    32            Position(A)                                  Velocity(au)
C        -0.04560693    -0.00967811    -0.10911981     0.00004184    -0.00009279     0.00006959
N        -0.03621163    -0.02474897     1.41932818    -0.00004209     0.00007433     0.00010606
H         1.00251887     0.00609939    -0.63615614     0.00032107     0.00014406    -0.00133922
H         0.85105123    -0.24481241     1.87610133    -0.00017143    -0.00027008     0.00056792
H        -1.00136735    -0.19701952     1.90520115     0.00076615    -0.00054291     0.00002544
H        -1.01847164     0.22520289    -0.67630730    -0.00082935     0.00074173    -0.00155720
     6
  Step:    33            Position(A)                                  Velocity(au)
C        -0.04537699    -0.01019970    -0.10856377     0.00004066    -0.00009467     0.00012869
N        -0.03649225    -0.02433747     1.41977246    -0.00005806     0.00007371     0.00005463
H         1.00406659     0.00691968    -0.64353000     0.00023240     0.00015112    -0.00131083
H         0.85025190    -0.24632243     1.87936730    -0.00011933    -0.00027246     0.00060369
H        -0.99659952    -0.19996873     1.90509873     0.00094024    -0.00051876    -0.00005876
H        -1.02282813     0.22933892    -0.68489657    -0.00073100     0.00074390    -0.00152672
     6
  Step:    34            Position(A)                                  Velocity(au)
C        -0.04515487    -0.01073060    -0.10768901     0.00003909    -0.00009621     0.00018444
N        -0.03685713    -0.02392951     1.41993553    -0.00007228     0.00007310     0.00000487
H         1.00510273     0.00777958    -0.65072995     0.00013768     0.00015838    -0.00127758
H         0.84972451    -0.24784165     1.88281319    -0.00007457    -0.00027324     0.00063246
H        -0.99091380    -0.20278706     1.90454785     0.00109560    -0.00049638    -0.00013530
H        -1.02659884     0.23347360    -0.69328135    -0.00062017     0.00074189    -0.00148509
     6
  Step:    35            Position(A)                                  Velocity(au)
C        -0.04494245    -0.01126912    -0.10651374     0.00003723    -0.00009747     0.00023701
N        -0.03729560    -0.02352494     1.41982664    -0.00008444     0.00007252    -0.00004328
H         1.00559689     0.00868005    -0.65773024     0.00003796     0.00016578    -0.00123973
H         0.84942306    -0.24935950     1.88639708    -0.00003875    -0.00027184     0.00065322
H        -0.98442196    -0.20548598     1.90359492     0.00122960    -0.00047628    -0.00020289
H        -1.02972130     0.23758498    -0.70140326    -0.00049909     0.00073608    -0.00143336
     6
  Step:    36            Position(A)                                  Velocity(au)
C        -0.04474113    -0.01181371    -0.10505524     0.00003515    -0.00009845     0.00028654
N        -0.03779544    -0.02312367     1.41945460    -0.00009427     0.00007195    -0.00008989
H         1.00552461     0.00962178    -0.66450656    -0.00006566     0.00017325    -0.00119752
H         0.84929386    -0.25086250     1.89007215    -0.00001306    -0.00026778     0.00066518
H        -0.97724967    -0.20807982     1.90229315     0.00133975    -0.00045900    -0.00026033
H        -1.03214499     0.24165336    -0.70920974    -0.00036986     0.00072687    -0.00137256
     6
  Step:    37            Position(A)                                  Velocity(au)
C        -0.04455189    -0.01236298    -0.10333003     0.00003292    -0.00009918     0.00033314
N        -0.03834303    -0.02272554     1.41882787    -0.00010154     0.00007141    -0.00013501
H         1.00486730     0.01060502    -0.67103597    -0.00017212     0.00018072    -0.00115123
H         0.84927795    -0.25233485     1.89378796     0.00000178    -0.00026071     0.00066783
H        -0.96953601    -0.21058591     1.90070244     0.00142368    -0.00044507    -0.00030640
H        -1.03383083     0.24566120    -0.71665382    -0.00023450     0.00071462    -0.00130367
     6
  Step:    38            Position(A)                                  Velocity(au)
C        -0.04437539    -0.01291566    -0.10135402     0.00003059    -0.00009969     0.00037689
N        -0.03892362    -0.02233031     1.41795457    -0.00010609     0.00007092    -0.00017869
H         1.00361235     0.01162961    -0.67729692    -0.00028029     0.00018811    -0.00110110
H         0.84931365    -0.25375910     1.89749188     0.00000550    -0.00025040     0.00066088
H        -0.96143227    -0.21302461     1.89888896     0.00147941    -0.00043502    -0.00034007
H        -1.03475037     0.24959299    -0.72369376    -0.00009488     0.00069971    -0.00122762
     6
  Step:    39            Position(A)                                  Velocity(au)
C        -0.04421203    -0.01347055    -0.09914273     0.00002820    -0.00009999     0.00041785
N        -0.03952168    -0.02193762     1.41684262    -0.00010780     0.00007050    -0.00022093
H         1.00175321     0.01269492    -0.68326937    -0.00038907     0.00019532    -0.00104744
H         0.84933903    -0.25511681     1.90113046    -0.00000174    -0.00023672     0.00064433
H        -0.95309955    -0.21541911     1.89692421     0.00150547    -0.00042934    -0.00036051
H        -1.03488500     0.25343516    -0.73029284     0.00004725     0.00068249    -0.00114531
     6
  Step:    40            Position(A)                                  Velocity(au)
C        -0.04406201    -0.01402660    -0.09671138     0.00002579    -0.00010009     0.00045604
N        -0.04012133    -0.02154698     1.41549984    -0.00010665     0.00007018    -0.00026173
H         0.99928939     0.01379985    -0.68893495    -0.00049735     0.00020229    -0.00099059
H         0.84929427    -0.25638929     1.90465092    -0.00001939    -0.00021970     0.00061841
H        -0.94470511    -0.21779494     1.89488335     0.00150118    -0.00042837    -0.00036725
H        -1.03422541     0.25717602    -0.73641922     0.00019025     0.00066328    -0.00105765
     6
  Step:    41            Position(A)                                  Velocity(au)
C        -0.04392540    -0.01458281    -0.09407504     0.00002338    -0.00010002     0.00049150
N        -0.04070680    -0.02115778     1.41393416    -0.00010271     0.00006997    -0.00030106
H         0.99622646     0.01494282    -0.69427712    -0.00060403     0.00020892    -0.00093091
H         0.84912362    -0.25755823     1.90800242    -0.00004652    -0.00019947     0.00058360
H        -0.93641796    -0.22017925     1.89284317     0.00146668    -0.00043232    -0.00036022
H        -1.03277091     0.26080573    -0.74204583     0.00033261     0.00064243    -0.00096550
     6
  Step:    42            Position(A)                                  Velocity(au)
C        -0.04380218    -0.01513830    -0.09124868     0.00002097    -0.00009980     0.00052422
N        -0.04126289    -0.02076930     1.41215372    -0.00009613     0.00006990    -0.00033886
H         0.99257598     0.01612184    -0.69928145    -0.00070803     0.00021514    -0.00086882
H         0.84877727    -0.25860629     1.91113729    -0.00008193    -0.00017625     0.00054059
H        -0.92840392    -0.22259992     1.89087973     0.00140301    -0.00044125    -0.00033978
H        -1.03052871     0.26431625    -0.74715014     0.00047293     0.00062027    -0.00086970
     6
  Step:    43            Position(A)                                  Velocity(au)
C        -0.04369228    -0.01569226    -0.08824728     0.00001858    -0.00009943     0.00055421
N        -0.04177546    -0.02038074     1.41016705    -0.00008714     0.00006996    -0.00037503
H         0.98835537     0.01733447    -0.70393571    -0.00080829     0.00022087    -0.00080473
H         0.84821279    -0.25951762     1.91401216    -0.00012417    -0.00015036     0.00049025
H        -0.92082075    -0.22508458     1.88906588     0.00131215    -0.00045498    -0.00030676
H        -1.02751341     0.26770127    -0.75171421     0.00060990     0.00059712    -0.00077108
     6
  Step:    44            Position(A)                                  Velocity(au)
C        -0.04359561    -0.01624401    -0.08508586     0.00001620    -0.00009895     0.00058144
N        -0.04223189    -0.01999131     1.40798331    -0.00007606     0.00007017    -0.00040945
H         0.98358772     0.01857792    -0.70823014    -0.00090381     0.00022605    -0.00073913
H         0.84739647    -0.26027835     1.91658885    -0.00017159    -0.00012219     0.00043358
H        -0.91381279    -0.22765937     1.88746851     0.00119703    -0.00047313    -0.00026254
H        -1.02374658     0.27095629    -0.75572459     0.00074230     0.00057330    -0.00067047
     6