 Fermi distribution function

Calculation with static geometry


********************************************************************************
 iSCC Total electronic   Diff electronic      SCC error    
   10   -0.54396224E+01   -0.84376950E-13    0.26044448E-07
********************************************************************************

 Total charge:     1.00000000

 Atomic gross charges (e)
 Atom           Charge
    1       0.16189534
    2      -0.03832798
    3       0.15738215
    4       0.27943687
    5       0.26800731
    6       0.17160631

Nr. of electrons (up):     12.00000000
Atom populations (up)
 Atom       Population
    1       3.83810466
    2       5.03832798
    3       0.84261785
    4       0.72056313
    5       0.73199269
    6       0.82839369

l-shell populations (up)
 Atom Sh.   l       Population
    1   1   0       1.29984847
    1   2   1       2.53825619
    2   1   0       1.41527564
    2   2   1       3.62305234
    3   1   0       0.84261785
    4   1   0       0.72056313
    5   1   0       0.73199269
    6   1   0       0.82839369

Orbital populations (up)
 Atom Sh.   l   m       Population  Label
    1   1   0   0       1.29984847  s
    1   2   1  -1       0.60894288  p_y
    1   2   1   0       0.88433278  p_z
    1   2   1   1       1.04498053  p_x
    2   1   0   0       1.41527564  s
    2   2   1  -1       1.33267789  p_y
    2   2   1   0       1.12437310  p_z
    2   2   1   1       1.16600135  p_x
    3   1   0   0       0.84261785  s
    4   1   0   0       0.72056313  s
    5   1   0   0       0.73199269  s
    6   1   0   0       0.82839369  s

Fermi level:                        -0.4914668388 H          -13.3735 eV
Band energy:                        -8.9802749524 H         -244.3657 eV
TS:                                  0.0000000000 H            0.0000 eV
Band free energy (E-TS):            -8.9802749524 H         -244.3657 eV
Extrapolated E(0K):                 -8.9802749524 H         -244.3657 eV
Input / Output electrons (q):     12.0000000000     12.0000000000

Energy H0:                          -5.5740523611 H         -151.6777 eV
Energy SCC:                          0.1344299184 H            3.6580 eV
Total Electronic energy:            -5.4396224427 H         -148.0197 eV
Repulsive energy:                    0.2004015576 H            5.4532 eV
Total energy:                       -5.2392208851 H         -142.5665 eV
Extrapolated to 0:                  -5.2392208851 H         -142.5665 eV
Total Mermin free energy:           -5.2392208851 H         -142.5665 eV
Force related energy:               -5.2392208851 H         -142.5665 eV

SCC converged

Excitation Energy:                   0.1650598820 H            4.4915 eV

Total Forces
    1     -0.007889237011      0.006511150951     -0.010739299419
    2     -0.006388742737     -0.006498198893     -0.012365003054
    3     -0.001618376689      0.004396430815      0.002773640140
    4     -0.001306200700     -0.006468077323      0.007702162457
    5      0.007575266564      0.007299646474      0.006750952852
    6      0.009627290573     -0.005240952024      0.005877547024

Maximal derivative component:        0.123650E-01 au


