|===============================================================================
|
|  DFTB+ release 20.1
|
|  Copyright (C) 2006 - 2020  DFTB+ developers group
|
|===============================================================================
|
|  When publishing results obtained with DFTB+, please cite the following
|  reference:
|
|  * DFTB+, a software package for efficient approximate density functional
|    theory based atomistic simulations, J. Chem. Phys. 152, 124101 (2020).
|    [doi: 10.1063/1.5143190]
|
|  You should also cite additional publications crediting the parametrization
|  data you use. Please consult the documentation of the SK-files for the
|  references.
|
|===============================================================================

Reading input file 'dftb_in.hsd'
Parser version: 8

--------------------------------------------------------------------------------
Reading SK-files:
Done.


Processed input in HSD format written to 'dftb_pin.hsd'

Starting initialization...
--------------------------------------------------------------------------------
WARNING!
-> Excited state forces are not implemented yet for fractional occupations, kT=  0.3158E-02K
OpenMP threads:              1
Chosen random seed:          433432107
Mode:                        Static calculation
Self consistent charges:     Yes
SCC-tolerance:                 0.100000E-05
Max. scc iterations:                    100
Shell resolved Hubbard:      No
Spin polarisation:           No
Nr. of up electrons:             6.000000
Nr. of down electrons:           6.000000
Periodic boundaries:         No
Electronic solver:           Relatively robust
Mixer:                       Broyden mixer
Mixing parameter:                  0.200000
Maximal SCC-cycles:                     100
Nr. of chrg. vec. in memory:              0
Electronic temperature:        0.100000E-07 H      0.272114E-06 eV
Initial charges:             Set automatically (system chrg:   0.100E+01)
Included shells:             C:  s, p
                             N:  s, p
                             H:  s
Extra options:
                             Mulliken analysis
                             Force calculation
Force type                   original
                             Eigenvector printing

--------------------------------------------------------------------------------

***  Geometry step: 0

 iSCC Total electronic   Diff electronic      SCC error    
    1   -0.54337009E+01    0.00000000E+00    0.61206428E+00
    2   -0.54369446E+01   -0.32436816E-02    0.42354620E+00
    3   -0.54394171E+01   -0.24724768E-02    0.50856482E-01
    4   -0.54396213E+01   -0.20424871E-03    0.13203958E-01
    5   -0.54396201E+01    0.12036637E-05    0.53245750E-02
    6   -0.54396224E+01   -0.22963330E-05    0.18008052E-03
    7   -0.54396224E+01   -0.57449601E-09    0.74622211E-04
    8   -0.54396224E+01   -0.21399327E-09    0.29544075E-05
    9   -0.54396224E+01   -0.34727776E-12    0.16718288E-05
   10   -0.54396224E+01   -0.84376950E-13    0.26044448E-07
>> Charges saved for restart in charges.bin

Total Energy:                       -5.0741610031 H         -138.0749 eV
Extrapolated to 0:                  -5.2392208851 H         -142.5665 eV
Total Mermin free energy:           -5.0741610031 H         -138.0749 eV
Force related energy:               -5.2392208851 H         -142.5665 eV

--------------------------------------------------------------------------------
DFTB+ running times                          cpu [s]             wall clock [s]
--------------------------------------------------------------------------------
SCC                                    +     0.01  ( 53.7%)      0.05  ( 70.8%)
Post-SCC processing                    +     0.01  ( 37.0%)      0.01  ( 21.5%)
--------------------------------------------------------------------------------
Missing                                +     0.00  (  9.3%)      0.00  (  7.7%)
Total                                  =     0.01  (100.0%)      0.06  (100.0%)
--------------------------------------------------------------------------------
