|===============================================================================
|
|  DFTB+ release 20.1
|
|  Copyright (C) 2006 - 2020  DFTB+ developers group
|
|===============================================================================
|
|  When publishing results obtained with DFTB+, please cite the following
|  reference:
|
|  * DFTB+, a software package for efficient approximate density functional
|    theory based atomistic simulations, J. Chem. Phys. 152, 124101 (2020).
|    [doi: 10.1063/1.5143190]
|
|  You should also cite additional publications crediting the parametrization
|  data you use. Please consult the documentation of the SK-files for the
|  references.
|
|===============================================================================

Reading input file 'dftb_in.hsd'
Parser version: 8

--------------------------------------------------------------------------------
Reading SK-files:
Done.


Processed input in HSD format written to 'dftb_pin.hsd'

Starting initialization...
--------------------------------------------------------------------------------
OpenMP threads:              1
Chosen random seed:          504077283
Mode:                        Static calculation
Self consistent charges:     Yes
SCC-tolerance:                 0.100000E-05
Max. scc iterations:                   1000
Shell resolved Hubbard:      No
Spin polarisation:           No
Nr. of up electrons:            16.000000
Nr. of down electrons:          16.000000
Periodic boundaries:         No
Electronic solver:           Relatively robust
Maximal SCC-cycles:                    1000
Initial charges:             Set automatically (system chrg:   0.100E+01)
Included shells:             C:  s, p
                             H:  s
                             N:  s, p
Spin coupling constants:     C   1(s)-1(s):  -0.455900E-01
                             C   1(s)-2(p):  -0.293000E-01
                             C   2(p)-1(s):  -0.293000E-01
                             C   2(p)-2(p):  -0.275500E-01
                             H   1(s)-1(s):  -0.792500E-01
                             N   1(s)-1(s):  -0.468700E-01
                             N   1(s)-2(p):  -0.317000E-01
                             N   2(p)-1(s):  -0.317000E-01
                             N   2(p)-2(p):  -0.307200E-01
Range separated hybrid:      Yes
  Screening parameter omega:   0.300000E+00
  Range separated algorithm:   MatrixBased
Extra options:
                             Mulliken analysis
                             Force calculation
Force type                   original
                             Eigenvector printing


REKS Calcuation:             Yes
SSR(2,2) Calcuation:         Yes
Energy Functional:           (PPS+OSS)/2
Number of Core Orbitals:                 15
Number of Active Orbitals:                2
Number of Basis:                         32
Number of States:                         2
State-Averaging Weight:          0.500000
                                 0.500000
State of Interest:                        1
Initial Guess:               Diagonalize H0 matrix
Newton-Raphson for FON opt:  Yes
NR max. Iterations:                      50
Level Shifting:              Yes
Shift Value:                     0.300000
W Scale Factor:              C  =    3.200000
                             H  =    3.200000
                             N  =    3.200000
Transition Dipole:           No
Gradient of Microstate:      No
CP-REKS Solver:              Preconditioned Conjugate-Gradient
CG max. Iterations:                     100
CG Tolerance:                  0.100000E-07
Memory for A and Hxc:        Direct Updating Without Saving
Non-Adiabatic Coupling:      Yes

--------------------------------------------------------------------------------

***  Geometry step: 0

  iSCC       reks energy        Diff energy         x_a       SCC error   
    1      -16.3939589946       0.0000000000     0.994904    1.22543211
    2      -16.4103900732      -0.0164310786     0.998877    0.05809304
    3      -16.4139267293      -0.0035366561     0.999492    0.02712297
    4      -16.4152377777      -0.0013110484     0.999695    0.01614553
    5      -16.4158449376      -0.0006071599     0.999788    0.01137803
    6      -16.4161607700      -0.0003158324     0.999838    0.00824906
    7      -16.4163375542      -0.0001767842     0.999867    0.00608228
    8      -16.4164418273      -0.0001042730     0.999887    0.00453705
    9      -16.4165059741      -0.0000641468     0.999900    0.00341497
   10      -16.4165469082      -0.0000409341     0.999909    0.00258979
   11      -16.4165739036      -0.0000269954     0.999916    0.00197707
   12      -16.4165922406      -0.0000183370     0.999921    0.00161547
   13      -16.4166050252      -0.0000127846     0.999925    0.00134777
   14      -16.4166141414      -0.0000091162     0.999928    0.00112584
   15      -16.4166207665      -0.0000066251     0.999930    0.00094189
   16      -16.4166256577      -0.0000048913     0.999932    0.00078931
   17      -16.4166293160      -0.0000036582     0.999934    0.00066260
   18      -16.4166320810      -0.0000027650     0.999935    0.00055721
   19      -16.4166341889      -0.0000021079     0.999936    0.00046940
   20      -16.4166358072      -0.0000016182     0.999937    0.00039610
   21      -16.4166370566      -0.0000012495     0.999938    0.00033480
   22      -16.4166380259      -0.0000009693     0.999939    0.00028344
   23      -16.4166387809      -0.0000007550     0.999939    0.00024032
   24      -16.4166393709      -0.0000005900     0.999940    0.00020406
   25      -16.4166398332      -0.0000004624     0.999940    0.00017351
   26      -16.4166401965      -0.0000003633     0.999941    0.00014773
   27      -16.4166404825      -0.0000002860     0.999941    0.00012594
   28      -16.4166407082      -0.0000002257     0.999941    0.00010748
   29      -16.4166408865      -0.0000001783     0.999941    0.00009184
   30      -16.4166410277      -0.0000001411     0.999942    0.00007855
   31      -16.4166411396      -0.0000001119     0.999942    0.00006818
   32      -16.4166412284      -0.0000000888     0.999942    0.00005927
   33      -16.4166412989      -0.0000000706     0.999942    0.00005158
   34      -16.4166413550      -0.0000000561     0.999942    0.00004493
   35      -16.4166413997      -0.0000000447     0.999942    0.00003917
   36      -16.4166414353      -0.0000000356     0.999942    0.00003419
   37      -16.4166414637      -0.0000000284     0.999942    0.00002986
   38      -16.4166414864      -0.0000000227     0.999942    0.00002610
   39      -16.4166415046      -0.0000000181     0.999943    0.00002284
   40      -16.4166415190      -0.0000000145     0.999943    0.00001999
   41      -16.4166415306      -0.0000000116     0.999943    0.00001752
   42      -16.4166415399      -0.0000000093     0.999943    0.00001536
   43      -16.4166415473      -0.0000000074     0.999943    0.00001374
   44      -16.4166415533      -0.0000000060     0.999943    0.00001231
   45      -16.4166415581      -0.0000000048     0.999943    0.00001103
   46      -16.4166415619      -0.0000000038     0.999943    0.00000988
   47      -16.4166415650      -0.0000000031     0.999943    0.00000885
   48      -16.4166415675      -0.0000000025     0.999943    0.00000792
   49      -16.4166415694      -0.0000000020     0.999943    0.00000710
   50      -16.4166415710      -0.0000000016     0.999943    0.00000636
   51      -16.4166415723      -0.0000000013     0.999943    0.00000570
   52      -16.4166415734      -0.0000000010     0.999943    0.00000510
   53      -16.4166415742      -0.0000000008     0.999943    0.00000457
   54      -16.4166415748      -0.0000000007     0.999943    0.00000409
   55      -16.4166415754      -0.0000000005     0.999943    0.00000367
   56      -16.4166415758      -0.0000000004     0.999943    0.00000329
   57      -16.4166415762      -0.0000000003     0.999943    0.00000295
   58      -16.4166415764      -0.0000000003     0.999943    0.00000264
   59      -16.4166415767      -0.0000000002     0.999943    0.00000236
   60      -16.4166415769      -0.0000000002     0.999943    0.00000212
   61      -16.4166415770      -0.0000000001     0.999943    0.00000190
   62      -16.4166415771      -0.0000000001     0.999943    0.00000170
   63      -16.4166415772      -0.0000000001     0.999943    0.00000153
   64      -16.4166415773      -0.0000000001     0.999943    0.00000137
   65      -16.4166415773      -0.0000000001     0.999943    0.00000123
   66      -16.4166415774      -0.0000000000     0.999943    0.00000110
   67      -16.4166415774      -0.0000000000     0.999943    0.00000099
  
--------------------------------------------------
 Final SA-REKS(2,2) energy:     -16.41664158
  
 State     Energy      FON(1)    FON(2)   Spin
  PPS  -16.47323507   1.999886  0.000114  0.00
  OSS  -16.36004809   1.000000  1.000000  0.00
 Trip  -16.40247151   1.000000  1.000000  1.00
--------------------------------------------------

 Lagrangian Wab:   0.01525325  0.01525365

--------------------------------------------------
 SSR: 2SI-2SA-REKS(2,2) Hamiltonian matrix
               PPS           OSS
   PPS   -16.47323507    0.02140792
   OSS     0.02140792  -16.36004809
--------------------------------------------------

----------------------------------------------------------------
 SSR: 2SI-2SA-REKS(2,2) states
                    E_n       C_{PPS}    C_{OSS}
 SSR state  1  -16.47714879  -0.983697   0.179836
 SSR state  2  -16.35613437  -0.179836  -0.983697
----------------------------------------------------------------

 unrelaxed SSR FONs for S0:  1.967549  0.032451

Total Energy:                      -16.4771487867 H         -448.3660 eV
Extrapolated to 0:                 -16.4771487867 H         -448.3660 eV

----------------------------------------------------------------------------------
 Solving CP-REKS equation for  1 state vector...
----------------------------------------------------------------------------------
  CG solver: Constructing Y initial guess
  CG solver: Iteration    1    eps =    0.006572450818
  CG solver: Iteration    2    eps =    0.000640994714
  CG solver: Iteration    3    eps =    0.000086898158
  CG solver: Iteration    4    eps =    0.000009531383
  CG solver: Iteration    5    eps =    0.000000826350
  CG solver: Iteration    6    eps =    0.000000548374
  CG solver: Iteration    7    eps =    0.000000104006
  CG solver: Iteration    8    eps =    0.000000021500
  CG solver: Iteration    9    eps =    0.000000009114
  Convergence reached in CG solver after    9 iterations
  CG solver: Calculating converged R, Z, Q2 matrix
----------------------------------------------------------------------------------

----------------------------------------------------------------------------------
 Solving CP-REKS equation for SI between  1 and  2 state vectors...
----------------------------------------------------------------------------------
  CG solver: Constructing Y initial guess
  CG solver: Iteration    1    eps =    0.053484065452
  CG solver: Iteration    2    eps =    0.005390227749
  CG solver: Iteration    3    eps =    0.001494810812
  CG solver: Iteration    4    eps =    0.000080350937
  CG solver: Iteration    5    eps =    0.000021920379
  CG solver: Iteration    6    eps =    0.000005321896
  CG solver: Iteration    7    eps =    0.000000845492
  CG solver: Iteration    8    eps =    0.000000131010
  CG solver: Iteration    9    eps =    0.000000075380
  CG solver: Iteration   10    eps =    0.000000009091
  Convergence reached in CG solver after   10 iterations
  CG solver: Calculating converged R, Z, Q2 matrix
----------------------------------------------------------------------------------

--------------------------------------------------
 Gradient Information
--------------------------------------------------
           1 st state (SSR)
     0.00351293     0.03890452     0.04627602
     0.07099315    -0.02389295    -0.00451184
    -0.03752866     0.00565060    -0.01498245
     0.02550741     0.00269771    -0.00171647
     0.02014063     0.02463880     0.01412312
    -0.10503024    -0.03699359    -0.01069749
     0.02271813    -0.02702935    -0.08725510
     0.01775499     0.00857496    -0.00543165
     0.03771355    -0.00227270     0.00861349
     0.00215263     0.02507917     0.04224079
    -0.00644254    -0.01561181    -0.01474414
    -0.03216980     0.01572184     0.05019428
     0.00853684    -0.00234057    -0.03785840
    -0.02785901    -0.01312664     0.01574985

           2 st state (SSR)
    -0.01303896     0.06910165     0.06003485
     0.06197785    -0.06151645    -0.04323186
    -0.03803635     0.00440282    -0.01218330
     0.02448576     0.00423839    -0.00290057
     0.02059789     0.02561574     0.01105035
     0.03169340    -0.03309388    -0.01275573
    -0.10579690    -0.00946122    -0.04183348
     0.01973757    -0.00910044     0.00707762
     0.03407000     0.01811069     0.00245620
     0.07102783     0.01822080     0.04413381
    -0.00683187    -0.01141183    -0.01677650
    -0.07833443     0.00015110     0.02405899
     0.00940310    -0.00241964    -0.03883106
    -0.03095489    -0.01283772     0.01970067
--------------------------------------------------
 Coupling Information
--------------------------------------------------
 between  1 and  2 states
--------------------------------------------------
 g vector - difference gradient
     0.00961532    -0.01596644    -0.00848031
     0.00903566     0.02082436     0.02357854
    -0.00049547    -0.00009477    -0.00090501
     0.00049601    -0.00036395     0.00041837
    -0.00018338    -0.00087312     0.00270797
    -0.09720783    -0.00342441     0.00268938
     0.09492415    -0.01039582    -0.03204977
    -0.00128179     0.01170926    -0.00897096
     0.00218803    -0.01266146     0.00390310
    -0.03664938     0.00802717     0.00737619
     0.00024652    -0.00146211     0.00063454
     0.01850235     0.00326283     0.01014567
    -0.00003347     0.00080805    -0.00008261
     0.00084327     0.00061042    -0.00096511

 h vector - derivative coupling
     0.00202778     0.00046598    -0.00297442
     0.01114605     0.00188138     0.00761269
    -0.00202727    -0.00201390     0.00156328
    -0.00013255     0.00121515    -0.00056735
     0.00016143    -0.00092754     0.00281629
    -0.06375900    -0.00354163     0.00420088
     0.06932229    -0.00265492    -0.02053637
    -0.00058674     0.00597549    -0.00603734
     0.00063519    -0.00466581     0.00161668
     0.00044875     0.01152823     0.02217474
     0.00010151     0.00207018    -0.00119465
    -0.01632733    -0.01337900    -0.01011344
     0.00113572     0.00202440    -0.00159295
    -0.00214585     0.00202199     0.00303195

 G vector - GDV
     0.00827594    -0.01509856    -0.00687941
     0.00450765     0.01881175     0.01936001
     0.00025384     0.00062389    -0.00139957
     0.00051082    -0.00077034     0.00059205
    -0.00022863    -0.00048847     0.00153638
    -0.06836182    -0.00194986     0.00102912
     0.06425752    -0.00878407    -0.02271081
    -0.00099129     0.00883770    -0.00625464
     0.00182177    -0.01019169     0.00307864
    -0.03443760     0.00342918    -0.00094651
     0.00019466    -0.00209999     0.00101618
     0.02308232     0.00778537     0.01306764
    -0.00043313     0.00003954     0.00048633
     0.00154794    -0.00014446    -0.00197541

 H vector - DCV - non-adiabatic coupling
     0.04378479    -0.04307928    -0.04778295
     0.11256503     0.07542499     0.12777453
    -0.01711729    -0.01584248     0.00943657
     0.00042570     0.00832776    -0.00316188
     0.00071156    -0.00972164     0.02968432
    -0.77699699    -0.03738511     0.04033139
     0.81331878    -0.05091394    -0.25242856
    -0.00828243     0.08041864    -0.07289073
     0.01130652    -0.07308003     0.02390673
    -0.10368279     0.11257039     0.19295381
     0.00150533     0.01172563    -0.00737824
    -0.07209863    -0.09386655    -0.04850384
     0.00868015     0.01800900    -0.01255337
    -0.01411975     0.01741262     0.02061222
--------------------------------------------------


--------------------------------------------------------------------------------
DFTB+ running times                          cpu [s]             wall clock [s]
--------------------------------------------------------------------------------
SCC                                    +     0.09  ( 24.8%)      0.09  ( 24.9%)
      Dense to sparse                        0.02  (  4.3%)      0.02  (  4.5%)
Post-SCC processing                    +     0.28  ( 74.6%)      0.28  ( 74.1%)
  Force calculation                          0.28  ( 74.4%)      0.28  ( 73.8%)
--------------------------------------------------------------------------------
Missing                                +     0.00  (  0.6%)      0.00  (  1.1%)
Total                                  =     0.37  (100.0%)      0.38  (100.0%)
--------------------------------------------------------------------------------
