     6
  Step:     0            Position(A)                                  Velocity(au)
C        -0.04429349     0.02571247     0.03900633    -0.00010981     0.00008187    -0.00026095
N        -0.04265189    -0.05550036     1.28455429     0.00019327    -0.00011176     0.00023523
H         0.90667789    -0.03398238    -0.52122848     0.00057113    -0.00003018     0.00006333
H         0.83909106    -0.14510202     1.82918148    -0.00112266     0.00034291    -0.00124023
H        -0.91179787    -0.04905707     1.80805320    -0.00145124     0.00056504     0.00096915
H        -0.92639914     0.02322448    -0.53938482     0.00062542    -0.00030035     0.00004847
     6
  Step:     1            Position(A)                                  Velocity(au)
C        -0.04484386     0.02622120     0.03714634    -0.00009049     0.00010404    -0.00041748
N        -0.04157949    -0.05611847     1.28621766     0.00019577    -0.00011395     0.00037158
H         0.90993576    -0.03430268    -0.52084662     0.00061233    -0.00008614     0.00007795
H         0.83296548    -0.14338171     1.82235586    -0.00109688     0.00028324    -0.00124061
H        -0.92003371    -0.04609757     1.81350918    -0.00153665     0.00051677     0.00101358
H        -0.92364038     0.02139192    -0.53934773     0.00037894    -0.00037012    -0.00003975
     6
  Step:     2            Position(A)                                  Velocity(au)
C        -0.04528371     0.02685098     0.03443781    -0.00006956     0.00012571    -0.00056937
N        -0.04050964    -0.05674736     1.28862052     0.00019192    -0.00011544     0.00050377
H         0.91337855    -0.03492506    -0.52037545     0.00063714    -0.00013995     0.00009518
H         0.82708796    -0.14200258     1.81560548    -0.00102873     0.00021811    -0.00120896
H        -0.92861336    -0.04340212     1.81914480    -0.00157431     0.00046760     0.00103363
H        -0.92225242     0.01917425    -0.53981979     0.00012777    -0.00043962    -0.00013567
     6
  Step:     3            Position(A)                                  Velocity(au)
C        -0.04560587     0.02759835     0.03090917    -0.00004767     0.00014634    -0.00071410
N        -0.03947715    -0.05738309     1.29173618     0.00018161    -0.00011611     0.00062916
H         0.91691534    -0.03583571    -0.51980394     0.00064503    -0.00019030     0.00011360
H         0.82169624    -0.14099245     1.80911227    -0.00091608     0.00014877    -0.00114254
H        -0.93727959    -0.04097524     1.82483209    -0.00156469     0.00041771     0.00103041
H        -0.92224072     0.01657606    -0.54083396    -0.00012001    -0.00050660    -0.00023520
     6
  Step:     4            Position(A)                                  Velocity(au)
C        -0.04580670     0.02845661     0.02660291    -0.00002549     0.00016526    -0.00084853
N        -0.03851711    -0.05802126     1.29552349     0.00016492    -0.00011587     0.00074469
H         0.92045560    -0.03701302    -0.51912904     0.00063672    -0.00023572     0.00013171
H         0.81703695    -0.14037037     1.80306989    -0.00075858     0.00007713    -0.00104035
H        -0.94578071    -0.03881915     1.83045013    -0.00150944     0.00036766     0.00100526
H        -0.92356912     0.01361595    -0.54240035    -0.00035690    -0.00056827    -0.00033390
     6
  Step:     5            Position(A)                                  Velocity(au)
C        -0.04588614     0.02941545     0.02157929    -0.00000372     0.00018180    -0.00096901
N        -0.03766375    -0.05865708     1.29992430     0.00014224    -0.00011462     0.00084700
H         0.92391636    -0.03842759    -0.51835578     0.00061416    -0.00027495     0.00014802
H         0.81335540    -0.14014441     1.79767322    -0.00055848     0.00000528    -0.00090383
H        -0.95387645    -0.03693270     1.83588528    -0.00141165     0.00031804     0.00095978
H        -0.92616502     0.01032771    -0.54450528    -0.00057640    -0.00062198    -0.00042737
     6
  Step:     6            Position(A)                                  Velocity(au)
C        -0.04584774     0.03046121     0.01591856     0.00001695     0.00019542    -0.00107187
N        -0.03694876    -0.05928510     1.30486257     0.00011431    -0.00011226     0.00093292
H         0.92722734    -0.04004462    -0.51749692     0.00058002    -0.00030725     0.00016118
H         0.81087915    -0.14031220     1.79310421    -0.00032158    -0.00006490    -0.00073723
H        -0.96134562    -0.03531246     1.84103272    -0.00127613     0.00026922     0.00089613
H        -0.92992453     0.00675791    -0.54711259    -0.00077284    -0.00066576    -0.00051171
     6
  Step:     7            Position(A)                                  Velocity(au)
C        -0.04569859     0.03157758     0.00972040     0.00003587     0.00020574    -0.00115404
N        -0.03639911    -0.05989914     1.31024586     0.00008228    -0.00010870     0.00099997
H         0.93033352    -0.04182687    -0.51657254     0.00053736    -0.00033243     0.00016994
H         0.80979754    -0.14086244     1.78951668    -0.00005755    -0.00013176    -0.00054758
H        -0.96799517    -0.03395411     1.84579981    -0.00110944     0.00022144     0.00081725
H        -0.93471553     0.00296190    -0.55016668    -0.00094135    -0.00069843    -0.00058379
     6
  Step:     8            Position(A)                                  Velocity(au)
C        -0.04544929     0.03274645     0.00310010     0.00005245     0.00021259    -0.00121370
N        -0.03603481    -0.06049245     1.31596961     0.00004770    -0.00010392     0.00104689
H         0.93319596    -0.04373706    -0.51560931     0.00048933    -0.00035077     0.00017334
H         0.81023997    -0.14177569     1.78702205     0.00022060    -0.00019382    -0.00034409
H        -0.97366866    -0.03285287     1.85011025    -0.00091967     0.00017491     0.00072693
H        -0.94038056    -0.00099984    -0.55359697    -0.00107815    -0.00071961    -0.00064153
     6
  Step:     9            Position(A)                                  Velocity(au)
C        -0.04511356     0.03394903    -0.00381832     0.00006622     0.00021609    -0.00125079
N        -0.03586702    -0.06105831     1.32192379     0.00001229    -0.00009804     0.00107403
H         0.93579199    -0.04573967    -0.51463895     0.00043913    -0.00036295     0.00017081
H         0.81225826    -0.14302452     1.78567843     0.00049798    -0.00024983    -0.00013716
H        -0.97825397    -0.03200297     1.85390864    -0.00071594     0.00012999     0.00062969
H        -0.94674220    -0.00506532    -0.55732289    -0.00118115    -0.00072980    -0.00068393
     6
  Step:    10            Position(A)                                  Velocity(au)
C        -0.04470745     0.03516717    -0.01091157     0.00007698     0.00021665    -0.00126736
N        -0.03589714    -0.06159076     1.32800119    -0.00002225    -0.00009135     0.00108353
H         0.93811521    -0.04780295    -0.51369589     0.00038979    -0.00037010     0.00016228
H         0.81581851    -0.14457428     1.78548555     0.00076023    -0.00029889     0.00006311
H        -0.98168874    -0.03139666     1.85716421    -0.00050761     0.00008710     0.00053042
H        -0.95361202    -0.00917521    -0.56125848    -0.00125049    -0.00073039    -0.00071092
     6
  Step:    11            Position(A)                                  Velocity(au)
C        -0.04424806     0.03638502    -0.01806837     0.00008474     0.00021495    -0.00126740
N        -0.03611724    -0.06208540     1.33410684    -0.00005451    -0.00008419     0.00107911
H         0.94017481    -0.04990108    -0.51281431     0.00034402    -0.00037371     0.00014818
H         0.82080621    -0.14638521     1.78638806     0.00099575    -0.00034075     0.00024851
H        -0.98396148    -0.03102365     1.85987268    -0.00030318     0.00004659     0.00043384
H        -0.96080263    -0.01327780    -0.56531644    -0.00128895    -0.00072363    -0.00072377
     6
  Step:    12            Position(A)                                  Velocity(au)
C        -0.04375215     0.03759048    -0.02520001     0.00008976     0.00021182    -0.00125602
N        -0.03651163    -0.06253988     1.34016687    -0.00008347    -0.00007695     0.00106539
H         0.94199366    -0.05201614    -0.51202537     0.00030386    -0.00037546     0.00012925
H         0.82704444    -0.14841581     1.78828721     0.00119713    -0.00037575     0.00041371
H        -0.98510674    -0.03087145     1.86205524    -0.00010923     0.00000860     0.00034387
H        -0.96814350    -0.01733334    -0.56941813    -0.00130140    -0.00071215    -0.00072504
     6
  Step:    13            Position(A)                                  Velocity(au)
C        -0.04323491     0.03877601    -0.03224599     0.00009240     0.00020804    -0.00123816
N        -0.03705946    -0.06295403     1.34613270    -0.00010861    -0.00006996     0.00104674
H         0.94360475    -0.05413920    -0.51135538     0.00027059    -0.00037691     0.00010629
H         0.83431908    -0.15062661     1.79105785     0.00136082    -0.00040465     0.00055627
H        -0.98519444    -0.03092661     1.86375419     0.00006997    -0.00002702     0.00026328
H        -0.97549244    -0.02131634    -0.57350048    -0.00129332    -0.00069836    -0.00071770
     6
  Step:    14            Position(A)                                  Velocity(au)
C        -0.04270936     0.03993825    -0.03917275     0.00009303     0.00020414    -0.00121738
N        -0.03773727    -0.06332936     1.35197942    -0.00012965    -0.00006339     0.00102626
H         0.94504734    -0.05626962    -0.51082590     0.00024474    -0.00037918     0.00007983
H         0.84240150    -0.15298230     1.79456482     0.00148554    -0.00042813     0.00067576
H        -0.98431709    -0.03117633     1.86502644     0.00023200    -0.00006060     0.00019370
H        -0.98273872    -0.02521438    -0.57751743    -0.00126923    -0.00068387    -0.00070417
     6
  Step:    15            Position(A)                                  Velocity(au)
C        -0.04218648     0.04107680    -0.04596632     0.00009186     0.00020037    -0.00119548
N        -0.03852062    -0.06366843     1.35769903    -0.00014643    -0.00005731     0.00100548
H         0.94636304    -0.05841271    -0.51045562     0.00022622    -0.00038284     0.00005017
H         0.85106176    -0.15545179     1.79867399     0.00157068    -0.00044656     0.00077256
H        -0.98257973    -0.03160964     1.86593732     0.00037521    -0.00009256     0.00013601
H        -0.98979719    -0.02902379    -0.58143674    -0.00123193    -0.00066929    -0.00068594
     6
  Step:    16            Position(A)                                  Velocity(au)
C        -0.04167585     0.04219251    -0.05262245     0.00008906     0.00019671    -0.00117273
N        -0.03938471    -0.06397413     1.36329163    -0.00015880    -0.00005171     0.00098462
H         0.94759243    -0.06057678    -0.51026141     0.00021456    -0.00038798     0.00001753
H         0.86007243    -0.15800633     1.80325649     0.00161565    -0.00045991     0.00084716
H        -0.98009577    -0.03221767     1.86655662     0.00049792    -0.00012318     0.00009077
H        -0.99659853    -0.03274419    -0.58523461    -0.00118271    -0.00065442    -0.00066370
     6
  Step:    17            Position(A)                                  Velocity(au)
C        -0.04118614     0.04328621    -0.05913824     0.00008473     0.00019303    -0.00114862
N        -0.04030425    -0.06424921     1.36875809    -0.00016658    -0.00004653     0.00096313
H         0.94877294    -0.06277047    -0.51025877     0.00020905    -0.00039440    -0.00001783
H         0.86920841    -0.16061743     1.80818914     0.00162025    -0.00046794     0.00090013
H        -0.97698715    -0.03299318     1.86695687     0.00059813    -0.00015262     0.00005849
H        -1.00308114    -0.03637407    -0.58889124    -0.00112217    -0.00063865    -0.00063771
     6
  Step:    18            Position(A)                                  Velocity(au)
C        -0.04072538     0.04435793    -0.06550775     0.00007896     0.00018917    -0.00112245
N        -0.04125347    -0.06449609     1.37409607    -0.00016968    -0.00004172     0.00094032
H         0.94993761    -0.06500123    -0.51046145     0.00020887    -0.00040180    -0.00005549
H         0.87824850    -0.16325571     1.81335419     0.00158530    -0.00047041     0.00093229
H        -0.97338588    -0.03392980     1.86721279     0.00067376    -0.00018093     0.00003961
H        -1.00918708    -0.03990866    -0.59238851    -0.00105089    -0.00062136    -0.00060823
     6
  Step:    19            Position(A)                                  Velocity(au)
C        -0.04030099     0.04540686    -0.07172115     0.00007190     0.00018502    -0.00109375
N        -0.04220642    -0.06471686     1.37929928    -0.00016812    -0.00003723     0.00091567
H         0.95111444    -0.06727479    -0.51088080     0.00021312    -0.00040991    -0.00009490
H         0.88698006    -0.16589088     1.81864031     0.00151301    -0.00046726     0.00094494
H        -0.96943418    -0.03502151     1.86740092     0.00072307    -0.00020813     0.00003441
H        -1.01486188    -0.04333970    -0.59570967    -0.00096983    -0.00060207    -0.00057566
     6
  Step:    20            Position(A)                                  Velocity(au)
C        -0.03991951     0.04643153    -0.07776594     0.00006376     0.00018052    -0.00106241
N        -0.04313765    -0.06491334     1.38435839    -0.00016208    -0.00003304     0.00088894
H         0.95232611    -0.06959532    -0.51152502     0.00022085    -0.00041854    -0.00013543
H         0.89520551    -0.16849257     1.82394455     0.00140697    -0.00045866     0.00093992
H        -0.96528204    -0.03626242     1.86759840     0.00074511    -0.00023425     0.00004285
H        -1.02005647    -0.04665638    -0.59884020    -0.00088042    -0.00058056    -0.00054062
     6
  Step:    21            Position(A)                                  Velocity(au)
C        -0.03958639     0.04743015    -0.08362889     0.00005474     0.00017568    -0.00102866
N        -0.04402301    -0.06508715     1.38926274    -0.00015189    -0.00002912     0.00086021
H         0.95358972    -0.07196589    -0.51239877     0.00023109    -0.00042761    -0.00017644
H         0.90274960    -0.17103157     1.82917507     0.00127191    -0.00044497     0.00091954
H        -0.96108286    -0.03764700     1.86788123     0.00073984    -0.00025940     0.00006455
H        -1.02472977    -0.04984671    -0.60176901    -0.00078445    -0.00055682    -0.00050391
     6
  Step:    22            Position(A)                                  Velocity(au)
C        -0.03930579     0.04840098    -0.08929784     0.00004512     0.00017055    -0.00099293
N        -0.04484046    -0.06523977     1.39400192    -0.00013803    -0.00002545     0.00082975
H         0.95491679    -0.07438909    -0.51350302     0.00024289    -0.00043712    -0.00021729
H         0.90946441    -0.17348092     1.83425315     0.00111323    -0.00042674     0.00088640
H        -0.95698794    -0.03917042     1.86832205     0.00070825    -0.00028377     0.00009870
H        -1.02885070    -0.05289870    -0.60448936    -0.00068395    -0.00053103    -0.00046644
     6
  Step:    23            Position(A)                                  Velocity(au)
C        -0.03908049     0.04934255    -0.09476300     0.00003512     0.00016520    -0.00095581
N        -0.04557075    -0.06537249     1.39856701    -0.00012103    -0.00002200     0.00079796
H         0.95631334    -0.07686754    -0.51483528     0.00025531    -0.00044717    -0.00025741
H         0.91523274    -0.17581674     1.83911467     0.00093665    -0.00040461     0.00084327
H        -0.95314095    -0.04082904     1.86898799     0.00065228    -0.00030766     0.00014412
H        -1.03239921    -0.05580133    -0.60699942    -0.00058097    -0.00050345    -0.00042914
     6
  Step:    24            Position(A)                                  Velocity(au)
C        -0.03891188     0.05025381    -0.10001764     0.00002500     0.00015974    -0.00091792
N        -0.04619783    -0.06548651     1.40295131    -0.00010151    -0.00001875     0.00076532
H         0.95778023    -0.07940430    -0.51638999     0.00026750    -0.00045790    -0.00029635
H         0.91996927    -0.17801874     1.84371072     0.00074778    -0.00037924     0.00079286
H        -0.94967236    -0.04262092     1.86993839     0.00057476    -0.00033142     0.00019925
H        -1.03536645    -0.05854507    -0.60930237    -0.00047743    -0.00047439    -0.00039290
     6
  Step:    25            Position(A)                                  Velocity(au)
C        -0.03880005     0.05113417    -0.10505823     0.00001497     0.00015424    -0.00087979
N        -0.04670925    -0.06558279     1.40715069    -0.00008010    -0.00001566     0.00073227
H         0.95931354    -0.08200325    -0.51815910     0.00027864    -0.00046947    -0.00033372
H         0.92361969    -0.18007027     1.84800724     0.00055186    -0.00035127     0.00073771
H        -0.94669448    -0.04454620     1.87122276     0.00047925    -0.00035547     0.00026222
H        -1.03775400    -0.06112201    -0.61140609    -0.00037508    -0.00044413    -0.00035850
     6
  Step:    26            Position(A)                                  Velocity(au)
C        -0.03874394     0.05198354    -0.10988413     0.00000522     0.00014877    -0.00084185
N        -0.04709616    -0.06566212     1.41116346    -0.00005744    -0.00001269     0.00069921
H         0.96090512    -0.08466927    -0.52013256     0.00028806    -0.00048210    -0.00036924
H         0.92615816    -0.18195810     1.85198393     0.00035361    -0.00032123     0.00068014
H        -0.94429775    -0.04660740     1.87287912     0.00036981    -0.00038026     0.00033092
H        -1.03957286    -0.06352579    -0.61332279    -0.00027544    -0.00041289    -0.00032665
     6
  Step:    27            Position(A)                                  Velocity(au)
C        -0.03874152     0.05280220    -0.11449692    -0.00000410     0.00014341    -0.00080443
N        -0.04735330    -0.06572507     1.41499006    -0.00003415    -0.00000980     0.00066644
H         0.96254323    -0.08740846    -0.52229889     0.00029517    -0.00049601    -0.00040268
H         0.92758425    -0.18367187     1.85563278     0.00015718    -0.00028957     0.00062214
H        -0.94254827    -0.04880958     1.87493292     0.00025086    -0.00040624     0.00040304
H        -1.04084217    -0.06575122    -0.61506847    -0.00017980    -0.00038083    -0.00029799
     6
  Step:    28            Position(A)                                  Velocity(au)
C        -0.03878993     0.05359075    -0.11889975    -0.00001287     0.00013817    -0.00076767
N        -0.04747888    -0.06577197     1.41863260    -0.00001081    -0.00000695     0.00063419
H         0.96421321    -0.09022827    -0.52464559     0.00029950    -0.00051144    -0.00043391
H         0.92791976    -0.18520350     1.85895653    -0.00003376    -0.00025661     0.00056548
H        -0.94148623    -0.05116033     1.87739619     0.00012701    -0.00043386     0.00047619
H        -1.04158801    -0.06779390    -0.61666247    -0.00008929    -0.00034801    -0.00027304
     6
  Step:    29            Position(A)                                  Velocity(au)
C        -0.03888566     0.05435004    -0.12309652    -0.00002097     0.00013311    -0.00073162
N        -0.04747435    -0.06580293     1.42209435     0.00001203    -0.00000410     0.00060257
H         0.96589824    -0.09313774    -0.52715956     0.00030073    -0.00052871    -0.00046282
H         0.92720608    -0.18654648     1.86196743    -0.00021595    -0.00022254     0.00051174
H        -0.94112551    -0.05366978     1.88026725     0.00000285    -0.00046357     0.00054793
H        -1.04184241    -0.06964972    -0.61812713    -0.00000488    -0.00031444    -0.00025234
     6
  Step:    30            Position(A)                                  Velocity(au)
C        -0.03902472     0.05508108    -0.12709104    -0.00002834     0.00012823    -0.00069612
N        -0.04734424    -0.06581783     1.42537904     0.00003383    -0.00000120     0.00057156
H         0.96758026    -0.09614783    -0.52982746     0.00029872    -0.00054820    -0.00048942
H         0.92550199    -0.18769514     1.86468609    -0.00038643    -0.00018743     0.00046232
H        -0.94145437    -0.05635050     1.88353086    -0.00011722    -0.00049577     0.00061589
H        -1.04164262    -0.07131438    -0.61948774     0.00007255    -0.00028000    -0.00023642
     6
  Step:    31            Position(A)                                  Velocity(au)
C        -0.03920283     0.05578496    -0.13088599    -0.00003494     0.00012355    -0.00066089
N        -0.04709581    -0.06581634     1.42849006     0.00005414     0.00000178     0.00054104
H         0.96924092    -0.09927202    -0.53263614     0.00029353    -0.00057041    -0.00051378
H         0.92288203    -0.18864379     1.86714072    -0.00054248    -0.00015118     0.00041853
H        -0.94243720    -0.05921743     1.88715893    -0.00022916    -0.00053091     0.00067786
H        -1.04103057    -0.07278293    -0.62077267     0.00014216    -0.00024455    -0.00022589
     6
  Step:    32            Position(A)                                  Velocity(au)
C        -0.03941551     0.05646286    -0.13448213    -0.00004076     0.00011909    -0.00062550
N        -0.04673880    -0.06579792     1.43142979     0.00007254     0.00000487     0.00051076
H         0.97086300    -0.10252710    -0.53557332     0.00028551    -0.00059607    -0.00053611
H         0.91943513    -0.18938582     1.86936670    -0.00068159    -0.00011350     0.00038162
H        -0.94401719    -0.06228794     1.89111174    -0.00032947    -0.00056940     0.00073187
H        -1.04005278    -0.07404929    -0.62201396     0.00020310    -0.00020782    -0.00022149
     6
  Step:    33            Position(A)                                  Velocity(au)
C        -0.03965839     0.05711609    -0.13787753    -0.00004582     0.00011488    -0.00058940
N        -0.04628496    -0.06576191     1.43419902     0.00008872     0.00000808     0.00048037
H         0.97243215    -0.10593450    -0.53862848     0.00027540    -0.00062614    -0.00055688
H         0.91526355    -0.18991239     1.87140629    -0.00080146    -0.00007386     0.00035286
H        -0.94611981    -0.06558189     1.89533941    -0.00041533    -0.00061170     0.00077627
H        -1.03876046    -0.07510586    -0.62324834     0.00025444    -0.00016955    -0.00022426
     6
  Step:    34            Position(A)                                  Velocity(au)
C        -0.03992735     0.05774623    -0.14106666    -0.00005020     0.00011097    -0.00055170
N        -0.04574767    -0.06570761     1.43679626     0.00010242     0.00001142     0.00044929
H         0.97393962    -0.10952205    -0.54179456     0.00026458    -0.00066198    -0.00057697
H         0.91048156    -0.19021100     1.87330864    -0.00090001    -0.00003147     0.00033348
H        -0.94865702    -0.06912156     1.89978388    -0.00048470    -0.00065817     0.00080978
H        -1.03721030    -0.07594340    -0.62451930     0.00029503    -0.00012949    -0.00023574
     6
  Step:    35            Position(A)                                  Velocity(au)
C        -0.04021888     0.05835519    -0.14403772    -0.00005404     0.00010746    -0.00051086
N        -0.04514138    -0.06563436     1.43921576     0.00011349     0.00001487     0.00041646
H         0.97538645    -0.11332611    -0.54507092     0.00025540    -0.00070523    -0.00059802
H         0.90521413    -0.19026381     1.87512987    -0.00097544     0.00001467     0.00032476
H        -0.95153191    -0.07293094     1.90438136    -0.00053638    -0.00070881     0.00083165
H        -1.03546621    -0.07655171    -0.62588057     0.00032325    -0.00008778    -0.00025827
     6
  Step:    36            Position(A)                                  Velocity(au)
C        -0.04053040     0.05894554    -0.14676809    -0.00005750     0.00010448    -0.00046439
N        -0.04448112    -0.06554167     1.44144419     0.00012184     0.00001837     0.00038011
H         0.97679000    -0.11739278    -0.54846872     0.00025152    -0.00075728    -0.00062287
H         0.89959515    -0.19004727     1.87693315    -0.00102632     0.00006511     0.00032791
H        -0.95464331    -0.07703224     1.90906543    -0.00056990    -0.00076236     0.00084178
H        -1.03360267    -0.07692303    -0.62740175     0.00033676    -0.00004577    -0.00029529
     6
  Step:    37            Position(A)                                  Velocity(au)
C        -0.04086029     0.05952064    -0.14921805    -0.00006068     0.00010218    -0.00040907
N        -0.04378230    -0.06542940     1.44345596     0.00012735     0.00002185     0.00033793
H         0.97819214    -0.12177359    -0.55201909     0.00025741    -0.00081734    -0.00065563
H         0.89376549    -0.18953750     1.87878777    -0.00105159     0.00011821     0.00034366
H        -0.95788918    -0.08143513     1.91377151    -0.00058512    -0.00081457     0.00084109
H        -1.03170962    -0.07706231    -0.62917454     0.00033272    -0.00000754    -0.00035053
     6
  Step:    38            Position(A)                                  Velocity(au)
C        -0.04120698     0.06008477    -0.15132901    -0.00007261     0.00011526    -0.00039256
N        -0.04306128    -0.06529802     1.44521188     0.00014857     0.00002885     0.00033019
H         0.97966005    -0.12650572    -0.55577866     0.00031547    -0.00100779    -0.00080121
H         0.88787045    -0.18872930     1.88076474    -0.00120336     0.00019271     0.00042541
H        -0.96116710    -0.08611433     1.91844310    -0.00066610    -0.00098203     0.00095194
H        -1.02989298    -0.07700708    -0.63131004     0.00035466     0.00002274    -0.00048682
     6
  Step:    39            Position(A)                                  Velocity(au)
C        -0.04158787     0.06071509    -0.15340601    -0.00006380     0.00011076    -0.00036007
N        -0.04225730    -0.06512880     1.44696343     0.00013875     0.00003214     0.00030356
H         0.98130962    -0.13187678    -0.56032606     0.00026396    -0.00092577    -0.00081886
H         0.88123501    -0.18789066     1.88313721    -0.00116618     0.00011399     0.00043164
H        -0.96475601    -0.09136435     1.92375213    -0.00061247    -0.00091482     0.00094411
H        -1.02795206    -0.07708739    -0.63403463     0.00034677    -0.00003988    -0.00048475
     6
  Step:    40            Position(A)                                  Velocity(au)
C        -0.04191785     0.06131889    -0.15534110    -0.00005467     0.00010596    -0.00033851
N        -0.04151524    -0.06493985     1.44859440     0.00012668     0.00003589     0.00028474
H         0.98260130    -0.13682132    -0.56490299     0.00019268    -0.00085760    -0.00081645
H         0.87487607    -0.18745918     1.88557436    -0.00110545     0.00004816     0.00044944
H        -0.96799166    -0.09630781     1.92896301    -0.00054156    -0.00087165     0.00091854
H        -1.02602908    -0.07745144    -0.63671147     0.00034530    -0.00008034    -0.00047464
     6
  Step:    41            Position(A)                                  Velocity(au)
C        -0.04219681     0.06189538    -0.15717657    -0.00004556     0.00010114    -0.00032234
N        -0.04084620    -0.06472902     1.45013504     0.00011272     0.00003997     0.00026979
H         0.98345582    -0.14142926    -0.56942025     0.00011096    -0.00080425    -0.00080158
H         0.86892173    -0.18735428     1.88814343    -0.00102270    -0.00000501     0.00047896
H        -0.97078826    -0.10107333     1.93398347    -0.00045659    -0.00084797     0.00087820
H        -1.02410593    -0.07798222    -0.63932152     0.00034484    -0.00010332    -0.00046366
     6
  Step:    42            Position(A)                                  Velocity(au)
C        -0.04242511     0.06244493    -0.15892994    -0.00003648     0.00009642    -0.00030840
N        -0.04026027    -0.06449489     1.45159816     0.00009703     0.00004426     0.00025650
H         0.98383670    -0.14577569    -0.57382757     0.00002452    -0.00076247    -0.00077963
H         0.86348950    -0.18751497     1.89090702    -0.00092026    -0.00004928     0.00051891
H        -0.97307520    -0.10574893     1.93874074    -0.00036013    -0.00083719     0.00082633
H        -1.02218976    -0.07860174    -0.64187376     0.00034218    -0.00011505    -0.00045500
     6
  Step:    43            Position(A)                                  Velocity(au)
C        -0.04260282     0.06296834    -0.16060853    -0.00002740     0.00009186    -0.00029546
N        -0.03976639    -0.06423651     1.45298937     0.00007988     0.00004870     0.00024399
H         0.98372867    -0.14991418    -0.57809613    -0.00006373    -0.00072889    -0.00075355
H         0.85868096    -0.18790264     1.89391791    -0.00080129    -0.00008799     0.00056737
H        -0.97479583    -0.11038969     1.94317907    -0.00025471    -0.00083451     0.00076567
H        -1.02029813    -0.07926253    -0.64438482     0.00033614    -0.00011993    -0.00044933
     6
  Step:    44            Position(A)                                  Velocity(au)
C        -0.04272987     0.06346657    -0.16221610    -0.00001831     0.00008747    -0.00028309
N        -0.03937179    -0.06395327     1.45431187     0.00006162     0.00005323     0.00023201
H         0.98312785    -0.15388245    -0.58220858    -0.00015209    -0.00070117    -0.00072497
H         0.85457757    -0.18849360     1.89721730    -0.00066966    -0.00012325     0.00062218
H        -0.97590809    -0.11503032     1.94725655    -0.00014296    -0.00083702     0.00069847
H        -1.01845125    -0.07993566    -0.64687125     0.00032650    -0.00012060    -0.00044646
     6