     6
  Step:     0            Position(A)                                  Velocity(au)
C        -0.03287397     0.01860766     0.02919753    -0.00009953    -0.00004600    -0.00027811
N        -0.03981697    -0.05115222     1.29090246     0.00005415     0.00004954     0.00025266
H         0.91751448    -0.03328917    -0.54350794     0.00073090     0.00029028    -0.00025148
H         0.77859328    -0.10952772     1.81949004    -0.00045397    -0.00041265     0.00026988
H        -0.94822543    -0.06994004     1.85896755     0.00021474    -0.00008658    -0.00035490
H        -1.01578151     0.03207800    -0.52966254    -0.00005807     0.00006876     0.00013949
     6
  Step:     1            Position(A)                                  Velocity(au)
C        -0.03343234     0.01837025     0.02747740    -0.00010423    -0.00004101    -0.00034932
N        -0.03959405    -0.05088883     1.29244925     0.00002751     0.00004698     0.00031112
H         0.92152784    -0.03171481    -0.54504529     0.00073198     0.00028607    -0.00030785
H         0.77680205    -0.11183314     1.82150305    -0.00019786    -0.00043145     0.00046811
H        -0.94668902    -0.07041110     1.85683587     0.00034236    -0.00008575    -0.00042143
H        -1.01598384     0.03244951    -0.52900367    -0.00001676     0.00006714     0.00010027
     6
  Step:     2            Position(A)                                  Velocity(au)
C        -0.03401389     0.01815908     0.02537696    -0.00010799    -0.00003643    -0.00041695
N        -0.03951607    -0.05063841     1.29430527     0.00000157     0.00004480     0.00036571
H         0.92552027    -0.03016043    -0.54687488     0.00072355     0.00028302    -0.00035849
H         0.77642925    -0.11424653     1.82460977     0.00006023    -0.00045191     0.00066692
H        -0.94448099    -0.07087795     1.85435830     0.00045885    -0.00008511    -0.00048040
H        -1.01596477     0.03281231    -0.52856589     0.00002247     0.00006561     0.00005849
     6
  Step:     3            Position(A)                                  Velocity(au)
C        -0.03461328     0.01797187     0.02291778    -0.00011068    -0.00003226    -0.00048013
N        -0.03957689    -0.05039889     1.29644845    -0.00002283     0.00004297     0.00041597
H         0.92944026    -0.02861979    -0.54896556     0.00070552     0.00028096    -0.00040334
H         0.77746068    -0.11677509     1.82879623     0.00031121    -0.00047310     0.00085979
H        -0.94167119    -0.07134186     1.85158240     0.00056074    -0.00008472    -0.00052936
H        -1.01573815     0.03316698    -0.52836407     0.00005873     0.00006417     0.00001382
     6
  Step:     4            Position(A)                                  Velocity(au)
C        -0.03522440     0.01780631     0.02012593    -0.00011217    -0.00002850    -0.00053798
N        -0.03976570    -0.05016845     1.29885456    -0.00004482     0.00004144     0.00046146
H         0.93323624    -0.02708768    -0.55128606     0.00067793     0.00027967    -0.00044234
H         0.77983279    -0.11942058     1.83401297     0.00054602    -0.00049392     0.00104015
H        -0.93834843    -0.07180453     1.84856894     0.00064443    -0.00008466    -0.00056583
H        -1.01532249     0.03351405    -0.52841470     0.00009116     0.00006280    -0.00003393
     6
  Step:     5            Position(A)                                  Velocity(au)
C        -0.03584047     0.01766006     0.01703208    -0.00011233    -0.00002517    -0.00058958
N        -0.04006723    -0.04994555     1.30149700    -0.00006360     0.00004015     0.00050168
H         0.93685708    -0.02556011    -0.55380496     0.00064094     0.00027891    -0.00047541
H         0.78343443    -0.12217884     1.84017590     0.00075620    -0.00051328     0.00120175
H        -0.93462083    -0.07226807     1.84539190     0.00070636    -0.00008499    -0.00058745
H        -1.01474086     0.03385402    -0.52873526     0.00011891     0.00006150    -0.00008482
     6
  Step:     6            Position(A)                                  Velocity(au)
C        -0.03645410     0.01753077     0.01367148    -0.00011106    -0.00002226    -0.00063413
N        -0.04046198    -0.04972896     1.30434667    -0.00007846     0.00003904     0.00053615
H         0.94025287    -0.02403432    -0.55649057     0.00059492     0.00027846    -0.00050250
H         0.78811129    -0.12503966     1.84716909     0.00093438    -0.00053006     0.00133914
H        -0.93061556    -0.07273500     1.84213783     0.00074323    -0.00008581    -0.00059208
H        -1.01402067     0.03418728    -0.52934328     0.00014124     0.00006024    -0.00013872
     6
  Step:     7            Position(A)                                  Velocity(au)
C        -0.03705743     0.01741613     0.01008358    -0.00010831    -0.00001978    -0.00067088
N        -0.04092694    -0.04951775     1.30737190    -0.00008883     0.00003807     0.00056442
H         0.94337594    -0.02250882    -0.55931113     0.00054047     0.00027811    -0.00052362
H         0.79367300    -0.12798704     1.85484964     0.00107481    -0.00054330     0.00144799
H        -0.92647681    -0.07320831     1.83890411     0.00075232    -0.00008717    -0.00057807
H        -1.01319317     0.03451415    -0.53025533     0.00015752     0.00005903    -0.00019531
     6
  Step:     8            Position(A)                                  Velocity(au)
C        -0.03764237     0.01731382     0.00631150    -0.00010408    -0.00001770    -0.00069930
N        -0.04143645    -0.04931127     1.31053867    -0.00009434     0.00003720     0.00058612
H         0.94618214    -0.02098333    -0.56223504     0.00047845     0.00027764    -0.00053889
H         0.79990258    -0.13099994     1.86305439     0.00117370    -0.00055219     0.00152540
H        -0.92236214    -0.07369135     1.83579610     0.00073182    -0.00008916    -0.00054441
H        -1.01229254     0.03483483    -0.53148597     0.00016734     0.00005783    -0.00025408
     6
  Step:     9            Position(A)                                  Velocity(au)
C        -0.03820089     0.01722162     0.00240100    -0.00009842    -0.00001604    -0.00071907
N        -0.04196333    -0.04910906     1.31381108    -0.00009485     0.00003639     0.00060104
H         0.94863218    -0.01945866    -0.56523135     0.00040995     0.00027690    -0.00054850
H         0.80656730    -0.13405344     1.87160779     0.00122937    -0.00055620     0.00157004
H        -0.91843699    -0.07418781     1.83292322     0.00068111    -0.00009181    -0.00049095
H        -1.01135481     0.03514945    -0.53304664     0.00017051     0.00005664    -0.00031434
     6
  Step:    10            Position(A)                                  Velocity(au)
C        -0.03872530     0.01713735    -0.00160064    -0.00009143    -0.00001476    -0.00073013
N        -0.04248013    -0.04891087     1.31715211    -0.00009046     0.00003562     0.00060914
H         0.95069293    -0.01793647    -0.56827035     0.00033628     0.00027579    -0.00055281
H         0.81342972    -0.13712005     1.88033006     0.00124223    -0.00055508     0.00158213
H        -0.91486767    -0.07470157     1.83039404     0.00060102    -0.00009515    -0.00041849
H        -1.01041639     0.03545806    -0.53494478     0.00016715     0.00005545    -0.00037531
     6
  Step:    11            Position(A)                                  Velocity(au)
C        -0.03920858     0.01705897    -0.00564620    -0.00008328    -0.00001384    -0.00073272
N        -0.04296040    -0.04871652     1.32052477    -0.00008151     0.00003487     0.00061060
H         0.95233853    -0.01641904    -0.57132429     0.00025889     0.00027423    -0.00055232
H         0.82025872    -0.14017135     1.88904552     0.00121460    -0.00054885     0.00156336
H        -0.91181277    -0.07523654     1.82831073     0.00049396    -0.00009917    -0.00032886
H        -1.00951254     0.03576064    -0.53718317     0.00015766     0.00005426    -0.00043611
