 Fermi distribution function

Calculation with static geometry


********************************************************************************
 iSCC Total electronic   Diff electronic      SCC error    
   10   -0.54185665E+01   -0.29931613E-12    0.16596091E-07
********************************************************************************

 Total charge:     1.00000000

 Atomic gross charges (e)
 Atom           Charge
    1       0.13812966
    2      -0.02225069
    3       0.15741751
    4       0.27232048
    5       0.27203690
    6       0.18234613

Nr. of electrons (up):     12.00000000
Atom populations (up)
 Atom       Population
    1       3.86187034
    2       5.02225069
    3       0.84258249
    4       0.72767952
    5       0.72796310
    6       0.81765387

l-shell populations (up)
 Atom Sh.   l       Population
    1   1   0       1.31752770
    1   2   1       2.54434265
    2   1   0       1.42315781
    2   2   1       3.59909287
    3   1   0       0.84258249
    4   1   0       0.72767952
    5   1   0       0.72796310
    6   1   0       0.81765387

Orbital populations (up)
 Atom Sh.   l   m       Population  Label
    1   1   0   0       1.31752770  s
    1   2   1  -1       0.61550402  p_y
    1   2   1   0       0.87574490  p_z
    1   2   1   1       1.05309373  p_x
    2   1   0   0       1.42315781  s
    2   2   1  -1       1.31981037  p_y
    2   2   1   0       1.11733416  p_z
    2   2   1   1       1.16194834  p_x
    3   1   0   0       0.84258249  s
    4   1   0   0       0.72767952  s
    5   1   0   0       0.72796310  s
    6   1   0   0       0.81765387  s

Fermi level:                        -0.4963466909 H          -13.5063 eV
Band energy:                        -8.9531250644 H         -243.6269 eV
TS:                                  0.0000000000 H            0.0000 eV
Band free energy (E-TS):            -8.9531250644 H         -243.6269 eV
Extrapolated E(0K):                 -8.9531250644 H         -243.6269 eV
Input / Output electrons (q):     12.0000000000     12.0000000000

Energy H0:                          -5.5525769354 H         -151.0933 eV
Energy SCC:                          0.1340104008 H            3.6466 eV
Total Electronic energy:            -5.4185665345 H         -147.4467 eV
Repulsive energy:                    0.1892543160 H            5.1499 eV
Total energy:                       -5.2293122185 H         -142.2968 eV
Extrapolated to 0:                  -5.2293122185 H         -142.2968 eV
Total Mermin free energy:           -5.2293122185 H         -142.2968 eV
Force related energy:               -5.2293122185 H         -142.2968 eV

SCC converged

Excitation Energy:                   0.1528446450 H            4.1591 eV

Total Forces
    1     -0.006129312638     -0.003186951715      0.011429776206
    2     -0.011012409592     -0.001939638880     -0.027855029966
    3     -0.004130912634      0.003811109939      0.002926023380
    4     -0.000711087869     -0.002586826531      0.005553767141
    5      0.011294711692      0.004623419802      0.002552794236
    6      0.010689011041     -0.000721112616      0.005392669004

Maximal derivative component:        0.278550E-01 au


