|===============================================================================
|
|  DFTB+ release 20.1
|
|  Copyright (C) 2006 - 2020  DFTB+ developers group
|
|===============================================================================
|
|  When publishing results obtained with DFTB+, please cite the following
|  reference:
|
|  * DFTB+, a software package for efficient approximate density functional
|    theory based atomistic simulations, J. Chem. Phys. 152, 124101 (2020).
|    [doi: 10.1063/1.5143190]
|
|  You should also cite additional publications crediting the parametrization
|  data you use. Please consult the documentation of the SK-files for the
|  references.
|
|===============================================================================

Reading input file 'dftb_in.hsd'
Parser version: 8

--------------------------------------------------------------------------------
Reading SK-files:
Done.


Processed input in HSD format written to 'dftb_pin.hsd'

Starting initialization...
--------------------------------------------------------------------------------
WARNING!
-> Excited state forces are not implemented yet for fractional occupations, kT=  0.3158E-02K
OpenMP threads:              1
Chosen random seed:          433654826
Mode:                        Static calculation
Self consistent charges:     Yes
SCC-tolerance:                 0.100000E-05
Max. scc iterations:                    100
Shell resolved Hubbard:      No
Spin polarisation:           No
Nr. of up electrons:             6.000000
Nr. of down electrons:           6.000000
Periodic boundaries:         No
Electronic solver:           Relatively robust
Mixer:                       Broyden mixer
Mixing parameter:                  0.200000
Maximal SCC-cycles:                     100
Nr. of chrg. vec. in memory:              0
Electronic temperature:        0.100000E-07 H      0.272114E-06 eV
Initial charges:             Set automatically (system chrg:   0.100E+01)
Included shells:             C:  s, p
                             N:  s, p
                             H:  s
Extra options:
                             Mulliken analysis
                             Force calculation
Force type                   original
                             Eigenvector printing

--------------------------------------------------------------------------------

***  Geometry step: 0

 iSCC Total electronic   Diff electronic      SCC error    
    1   -0.54130533E+01    0.00000000E+00    0.58562611E+00
    2   -0.54160628E+01   -0.30095001E-02    0.40450497E+00
    3   -0.54183603E+01   -0.22974255E-02    0.48315660E-01
    4   -0.54185654E+01   -0.20517859E-03    0.11115230E-01
    5   -0.54185627E+01    0.27191992E-05    0.56345465E-02
    6   -0.54185665E+01   -0.38059581E-05    0.10645674E-03
    7   -0.54185665E+01   -0.29162806E-09    0.67198662E-04
    8   -0.54185665E+01   -0.14795365E-09    0.39882063E-05
    9   -0.54185665E+01   -0.36592951E-12    0.26383232E-05
   10   -0.54185665E+01   -0.29931613E-12    0.16596091E-07
>> Charges saved for restart in charges.bin

Total Energy:                       -5.0764675736 H         -138.1377 eV
Extrapolated to 0:                  -5.2293122185 H         -142.2968 eV
Total Mermin free energy:           -5.0764675736 H         -138.1377 eV
Force related energy:               -5.2293122185 H         -142.2968 eV

--------------------------------------------------------------------------------
DFTB+ running times                          cpu [s]             wall clock [s]
--------------------------------------------------------------------------------
SCC                                    +     0.01  ( 63.4%)      0.03  ( 65.3%)
Post-SCC processing                    +     0.00  ( 27.9%)      0.01  ( 26.5%)
--------------------------------------------------------------------------------
Missing                                +     0.00  (  8.7%)      0.00  (  8.2%)
Total                                  =     0.01  (100.0%)      0.05  (100.0%)
--------------------------------------------------------------------------------
