 Fermi distribution function

Calculation with static geometry


********************************************************************************
 iSCC Total electronic   Diff electronic      SCC error    
    9   -0.54554543E+01   -0.11457502E-12    0.31991677E-06
********************************************************************************

 Total charge:     1.00000000

 Atomic gross charges (e)
 Atom           Charge
    1       0.16137342
    2      -0.03464165
    3       0.16390061
    4       0.27259753
    5       0.27398566
    6       0.16278443

Nr. of electrons (up):     12.00000000
Atom populations (up)
 Atom       Population
    1       3.83862658
    2       5.03464165
    3       0.83609939
    4       0.72740247
    5       0.72601434
    6       0.83721557

l-shell populations (up)
 Atom Sh.   l       Population
    1   1   0       1.30079240
    1   2   1       2.53783418
    2   1   0       1.41478378
    2   2   1       3.61985787
    3   1   0       0.83609939
    4   1   0       0.72740247
    5   1   0       0.72601434
    6   1   0       0.83721557

Orbital populations (up)
 Atom Sh.   l   m       Population  Label
    1   1   0   0       1.30079240  s
    1   2   1  -1       0.62081769  p_y
    1   2   1   0       0.87705664  p_z
    1   2   1   1       1.03995985  p_x
    2   1   0   0       1.41478378  s
    2   2   1  -1       1.37216192  p_y
    2   2   1   0       1.10422714  p_z
    2   2   1   1       1.14346881  p_x
    3   1   0   0       0.83609939  s
    4   1   0   0       0.72740247  s
    5   1   0   0       0.72601434  s
    6   1   0   0       0.83721557  s

Fermi level:                        -0.4890598668 H          -13.3080 eV
Band energy:                        -8.9854147803 H         -244.5056 eV
TS:                                  0.0000000000 H            0.0000 eV
Band free energy (E-TS):            -8.9854147803 H         -244.5056 eV
Extrapolated E(0K):                 -8.9854147803 H         -244.5056 eV
Input / Output electrons (q):     12.0000000000     12.0000000000

Energy H0:                          -5.5890792380 H         -152.0866 eV
Energy SCC:                          0.1336248929 H            3.6361 eV
Total Electronic energy:            -5.4554543452 H         -148.4505 eV
Repulsive energy:                    0.1980384121 H            5.3889 eV
Total energy:                       -5.2574159331 H         -143.0616 eV
Extrapolated to 0:                  -5.2574159331 H         -143.0616 eV
Total Mermin free energy:           -5.2574159331 H         -143.0616 eV
Force related energy:               -5.2574159331 H         -143.0616 eV

SCC converged

Excitation Energy:                   0.1900698421 H            5.1721 eV

Total Forces
    1     -0.001063901211      0.008120823481     -0.003292818127
    2     -0.006652771497     -0.003245645073     -0.017413467281
    3     -0.004480061612     -0.003749453750      0.002020732867
    4     -0.000276179628      0.001381892422      0.008973271447
    5      0.006422689742     -0.001658988322      0.005294713776
    6      0.006050224207     -0.000848628758      0.004417567319

Maximal derivative component:        0.174135E-01 au


