 Fermi distribution function

Calculation with static geometry


********************************************************************************
 iSCC Total electronic   Diff electronic      SCC error    
   13   -0.52716038E+01   -0.18713919E-10    0.47822821E-08
********************************************************************************

 Total charge:     1.00000000

 Atomic gross charges (e)
 Atom           Charge
    1       0.29441574
    2      -0.17577782
    3       0.18462165
    4       0.26218929
    5       0.25854604
    6       0.17600510

Nr. of electrons (up):     12.00000000
Atom populations (up)
 Atom       Population
    1       3.70558426
    2       5.17577782
    3       0.81537835
    4       0.73781071
    5       0.74145396
    6       0.82399490

l-shell populations (up)
 Atom Sh.   l       Population
    1   1   0       1.40485755
    1   2   1       2.30072671
    2   1   0       1.52916614
    2   2   1       3.64661168
    3   1   0       0.81537835
    4   1   0       0.73781071
    5   1   0       0.74145396
    6   1   0       0.82399490

Orbital populations (up)
 Atom Sh.   l   m       Population  Label
    1   1   0   0       1.40485755  s
    1   2   1  -1       0.42693676  p_y
    1   2   1   0       0.86469694  p_z
    1   2   1   1       1.00909301  p_x
    2   1   0   0       1.52916614  s
    2   2   1  -1       1.38402544  p_y
    2   2   1   0       1.09250531  p_z
    2   2   1   1       1.17008093  p_x
    3   1   0   0       0.81537835  s
    4   1   0   0       0.73781071  s
    5   1   0   0       0.74145396  s
    6   1   0   0       0.82399490  s

Fermi level:                        -0.5230178089 H          -14.2320 eV
Band energy:                        -8.6923505889 H         -236.5309 eV
TS:                                  0.0000000000 H            0.0000 eV
Band free energy (E-TS):            -8.6923505889 H         -236.5309 eV
Extrapolated E(0K):                 -8.6923505889 H         -236.5309 eV
Input / Output electrons (q):     12.0000000000     12.0000000000

Energy H0:                          -5.4086809072 H         -147.1777 eV
Energy SCC:                          0.1370770918 H            3.7301 eV
Total Electronic energy:            -5.2716038154 H         -143.4476 eV
Repulsive energy:                    0.1356205263 H            3.6904 eV
Total energy:                       -5.1359832891 H         -139.7572 eV
Extrapolated to 0:                  -5.1359832891 H         -139.7572 eV
Total Mermin free energy:           -5.1359832891 H         -139.7572 eV
Force related energy:               -5.1359832891 H         -139.7572 eV

SCC converged

Excitation Energy:                   0.1099304922 H            2.9914 eV

Total Forces
    1     -0.003695576737      0.000976502651      0.026001666713
    2     -0.000942674730      0.019819642904     -0.029352894841
    3      0.004646344716     -0.007991117660     -0.006181462281
    4     -0.006825420677     -0.000938669992     -0.000500493146
    5      0.001770464317     -0.013761613783      0.005552614569
    6      0.005046863111      0.001895255879      0.004480568986

Maximal derivative component:        0.293529E-01 au


