|===============================================================================
|
|  DFTB+ release 20.1
|
|  Copyright (C) 2006 - 2020  DFTB+ developers group
|
|===============================================================================
|
|  When publishing results obtained with DFTB+, please cite the following
|  reference:
|
|  * DFTB+, a software package for efficient approximate density functional
|    theory based atomistic simulations, J. Chem. Phys. 152, 124101 (2020).
|    [doi: 10.1063/1.5143190]
|
|  You should also cite additional publications crediting the parametrization
|  data you use. Please consult the documentation of the SK-files for the
|  references.
|
|===============================================================================

Reading input file 'dftb_in.hsd'
Parser version: 8

--------------------------------------------------------------------------------
Reading SK-files:
Done.


Processed input in HSD format written to 'dftb_pin.hsd'

Starting initialization...
--------------------------------------------------------------------------------
WARNING!
-> Excited state forces are not implemented yet for fractional occupations, kT=  0.3158E-02K
OpenMP threads:              1
Chosen random seed:          433657094
Mode:                        Static calculation
Self consistent charges:     Yes
SCC-tolerance:                 0.100000E-05
Max. scc iterations:                    100
Shell resolved Hubbard:      No
Spin polarisation:           No
Nr. of up electrons:             6.000000
Nr. of down electrons:           6.000000
Periodic boundaries:         No
Electronic solver:           Relatively robust
Mixer:                       Broyden mixer
Mixing parameter:                  0.200000
Maximal SCC-cycles:                     100
Nr. of chrg. vec. in memory:              0
Electronic temperature:        0.100000E-07 H      0.272114E-06 eV
Initial charges:             Set automatically (system chrg:   0.100E+01)
Included shells:             C:  s, p
                             N:  s, p
                             H:  s
Extra options:
                             Mulliken analysis
                             Force calculation
Force type                   original
                             Eigenvector printing

--------------------------------------------------------------------------------

***  Geometry step: 0

 iSCC Total electronic   Diff electronic      SCC error    
    1   -0.52336909E+01    0.00000000E+00    0.10678285E+01
    2   -0.52590573E+01   -0.25366385E-01    0.64814771E+00
    3   -0.52682099E+01   -0.91526170E-02    0.26490538E+00
    4   -0.47764299E+01    0.49178005E+00    0.23344711E+01
    5   -0.52701973E+01   -0.49376741E+00    0.11849315E+00
    6   -0.52715986E+01   -0.14013443E-02    0.54383059E-02
    7   -0.52716021E+01   -0.34817311E-05    0.21903703E-02
    8   -0.52716033E+01   -0.12191527E-05    0.22007306E-02
    9   -0.52716036E+01   -0.29187252E-06    0.14182633E-02
   10   -0.52716038E+01   -0.16066241E-06    0.44123045E-03
   11   -0.52716038E+01   -0.18040874E-07    0.36856364E-04
   12   -0.52716038E+01   -0.99236175E-10    0.14308140E-04
   13   -0.52716038E+01   -0.18713919E-10    0.47822821E-08
>> Charges saved for restart in charges.bin

Total Energy:                       -5.0260527969 H         -136.7659 eV
Extrapolated to 0:                  -5.1359832891 H         -139.7572 eV
Total Mermin free energy:           -5.0260527969 H         -136.7659 eV
Force related energy:               -5.1359832891 H         -139.7572 eV

--------------------------------------------------------------------------------
DFTB+ running times                          cpu [s]             wall clock [s]
--------------------------------------------------------------------------------
SCC                                    +     0.02  ( 60.7%)      0.19  ( 89.9%)
Post-SCC processing                    +     0.01  ( 33.8%)      0.02  (  8.7%)
--------------------------------------------------------------------------------
Missing                                +     0.00  (  5.5%)      0.00  (  1.4%)
Total                                  =     0.03  (100.0%)      0.21  (100.0%)
--------------------------------------------------------------------------------
