     6
  Step:   300            Position(A)                                  Velocity(au)
C        -0.04289313     0.01048816     0.02838681    -0.00001927     0.00002684     0.00010273
N        -0.04047024    -0.05715150     1.29104944    -0.00000085    -0.00000175    -0.00005915
H         0.88263308     0.10479886    -0.53862357     0.00004619     0.00109048     0.00022538
H         0.81830944    -0.13282718     1.84134808     0.00007083    -0.00133957    -0.00027718
H        -0.87959395     0.06816519     1.87187557     0.00010037     0.00129146    -0.00038188
H        -0.96079231    -0.04070187    -0.56167799     0.00002405    -0.00133789     0.00003159
