 Fermi distribution function

Calculation with static geometry


********************************************************************************
 iSCC Total electronic   Diff electronic      SCC error    
   14   -0.52464984E+01   -0.77360340E-12    0.25947271E-08
********************************************************************************

 Total charge:     1.00000000

 Atomic gross charges (e)
 Atom           Charge
    1       0.29568357
    2      -0.18213662
    3       0.18311095
    4       0.25990493
    5       0.25944017
    6       0.18399700

Nr. of electrons (up):     12.00000000
Atom populations (up)
 Atom       Population
    1       3.70431643
    2       5.18213662
    3       0.81688905
    4       0.74009507
    5       0.74055983
    6       0.81600300

l-shell populations (up)
 Atom Sh.   l       Population
    1   1   0       1.42024008
    1   2   1       2.28407635
    2   1   0       1.54203391
    2   2   1       3.64010272
    3   1   0       0.81688905
    4   1   0       0.74009507
    5   1   0       0.74055983
    6   1   0       0.81600300

Orbital populations (up)
 Atom Sh.   l   m       Population  Label
    1   1   0   0       1.42024008  s
    1   2   1  -1       0.39414107  p_y
    1   2   1   0       0.86666672  p_z
    1   2   1   1       1.02326856  p_x
    2   1   0   0       1.54203391  s
    2   2   1  -1       1.35947654  p_y
    2   2   1   0       1.11484121  p_z
    2   2   1   1       1.16578497  p_x
    3   1   0   0       0.81688905  s
    4   1   0   0       0.74009507  s
    5   1   0   0       0.74055983  s
    6   1   0   0       0.81600300  s

Fermi level:                        -0.5239960155 H          -14.2587 eV
Band energy:                        -8.6359209561 H         -234.9954 eV
TS:                                  0.0000000000 H            0.0000 eV
Band free energy (E-TS):            -8.6359209561 H         -234.9954 eV
Extrapolated E(0K):                 -8.6359209561 H         -234.9954 eV
Input / Output electrons (q):     12.0000000000     12.0000000000

Energy H0:                          -5.3831511137 H         -146.4830 eV
Energy SCC:                          0.1366526707 H            3.7185 eV
Total Electronic energy:            -5.2464984430 H         -142.7645 eV
Repulsive energy:                    0.1309280624 H            3.5627 eV
Total energy:                       -5.1155703806 H         -139.2018 eV
Extrapolated to 0:                  -5.1155703806 H         -139.2018 eV
Total Mermin free energy:           -5.1155703806 H         -139.2018 eV
Force related energy:               -5.1155703806 H         -139.2018 eV

SCC converged

Excitation Energy:                   0.0950180488 H            2.5856 eV

Total Forces
    1     -0.007764889985     -0.006886583208      0.016228893386
    2     -0.017787912781     -0.010014999321     -0.012773339722
    3      0.011992725189      0.004103815571     -0.007195619477
    4      0.001989578509     -0.002120700488      0.003131476650
    5      0.013013357368      0.012475576220     -0.000163506441
    6     -0.001442858300      0.002442891227      0.000772095604

Maximal derivative component:        0.177879E-01 au


