     6
  Step:   120            Position(A)                                  Velocity(au)
C        -0.02330942     0.04934114     0.01476775     0.00010283     0.00001453    -0.00026778
N        -0.04603043    -0.06066819     1.31450093    -0.00004082    -0.00002679     0.00015705
H         0.66186984    -0.60946213    -0.62471423    -0.00074027    -0.00154533     0.00048095
H         0.71924924     0.37191959     1.89998357    -0.00064564     0.00152385     0.00014235
H        -0.80904892    -0.56526247     1.82980816     0.00081232    -0.00138242    -0.00018205
H        -0.86758763     0.38814698    -0.65576907    -0.00008440     0.00160304     0.00056716
