|===============================================================================
|
|  DFTB+ release 20.1
|
|  Copyright (C) 2006 - 2020  DFTB+ developers group
|
|===============================================================================
|
|  When publishing results obtained with DFTB+, please cite the following
|  reference:
|
|  * DFTB+, a software package for efficient approximate density functional
|    theory based atomistic simulations, J. Chem. Phys. 152, 124101 (2020).
|    [doi: 10.1063/1.5143190]
|
|  You should also cite additional publications crediting the parametrization
|  data you use. Please consult the documentation of the SK-files for the
|  references.
|
|===============================================================================

Reading input file 'dftb_in.hsd'
Parser version: 8

--------------------------------------------------------------------------------
Reading SK-files:
Done.


Processed input in HSD format written to 'dftb_pin.hsd'

Starting initialization...
--------------------------------------------------------------------------------
WARNING!
-> Excited state forces are not implemented yet for fractional occupations, kT=  0.3158E-02K
OpenMP threads:              1
Chosen random seed:          508852241
Mode:                        Static calculation
Self consistent charges:     Yes
SCC-tolerance:                 0.100000E-05
Max. scc iterations:                    100
Shell resolved Hubbard:      No
Spin polarisation:           No
Nr. of up electrons:             6.000000
Nr. of down electrons:           6.000000
Periodic boundaries:         No
Electronic solver:           Relatively robust
Mixer:                       Broyden mixer
Mixing parameter:                  0.200000
Maximal SCC-cycles:                     100
Nr. of chrg. vec. in memory:              0
Electronic temperature:        0.100000E-07 H      0.272114E-06 eV
Initial charges:             Set automatically (system chrg:   0.100E+01)
Included shells:             C:  s, p
                             N:  s, p
                             H:  s
Extra options:
                             Mulliken analysis
                             Force calculation
Force type                   original
                             Eigenvector printing

--------------------------------------------------------------------------------

***  Geometry step: 0

 iSCC Total electronic   Diff electronic      SCC error    
    1   -0.53697369E+01    0.00000000E+00    0.88779239E+00
    2   -0.53773628E+01   -0.76258818E-02    0.60403137E+00
    3   -0.53825842E+01   -0.52213607E-02    0.11192466E+00
    4   -0.53813210E+01    0.12632327E-02    0.21858894E+00
    5   -0.53831920E+01   -0.18710191E-02    0.26070714E-01
    6   -0.53832083E+01   -0.16302806E-04    0.14553036E-01
    7   -0.53832157E+01   -0.74688637E-05    0.22226192E-03
    8   -0.53832157E+01   -0.24243541E-09    0.19415929E-03
    9   -0.53832157E+01   -0.15711317E-08    0.65663087E-05
   10   -0.53832157E+01   -0.19966251E-11    0.13021273E-05
   11   -0.53832157E+01   -0.89706020E-13    0.78507015E-07
>> Charges saved for restart in charges.bin

Total Energy:                       -5.0945842582 H         -138.6307 eV
Extrapolated to 0:                  -5.1906007604 H         -141.2434 eV
Total Mermin free energy:           -5.0945842582 H         -138.6307 eV
Force related energy:               -5.1906007604 H         -141.2434 eV

--------------------------------------------------------------------------------
DFTB+ running times                          cpu [s]             wall clock [s]
--------------------------------------------------------------------------------
SCC                                    +     0.02  ( 56.8%)      0.04  ( 64.1%)
Post-SCC processing                    +     0.01  ( 30.0%)      0.01  ( 23.4%)
--------------------------------------------------------------------------------
Missing                                +     0.00  ( 13.2%)      0.01  ( 12.5%)
Total                                  =     0.03  (100.0%)      0.06  (100.0%)
--------------------------------------------------------------------------------
