    14
  Step:     0            Position(A)                                  Velocity(au)
C        -6.05907504    -0.77071797    -0.11027319     0.00000941    -0.00006974     0.00006428
C        -4.69965812    -0.71470538     0.12108341    -0.00011486    -0.00008570     0.00003661
H        -6.59932735     0.06222758    -0.52535580     0.00023336    -0.00037163    -0.00026594
H        -6.44209039    -1.77149489    -0.02440094     0.00097613     0.00048858    -0.00047875
H        -4.29760872    -1.66093322     0.47759210     0.00029798    -0.00042530     0.00009646
C        -3.91526856     0.43329300    -0.04174779    -0.00003381     0.00013734    -0.00006734
C        -2.54683195     0.49180456     0.18282224     0.00007393     0.00024459     0.00004111
H        -4.38120651     1.36411232    -0.33222328    -0.00049202     0.00050022     0.00044657
H        -1.95428112    -0.44337978     0.49027650     0.00098161    -0.00052690    -0.00006483
C        -1.79611467     1.69723159     0.02000986    -0.00018248    -0.00003294    -0.00019801
H        -2.38337960     2.55492549    -0.25661052    -0.00058314     0.00061777     0.00025359
N        -0.53211542     1.82350435     0.21308172     0.00011807    -0.00012581     0.00006037
H         0.00406693     2.67638777     0.00370202     0.00027603     0.00065823     0.00005596
H         0.08196450     0.97154297     0.17142991    -0.00037795    -0.00149904     0.00058787
    14
  Step:     1            Position(A)                                  Velocity(au)
C        -6.05898881    -0.77151652    -0.10962730     0.00000768    -0.00007420     0.00005357
C        -4.70084661    -0.71564902     0.12153486    -0.00010038    -0.00008669     0.00004633
H        -6.59737334     0.05841245    -0.52824741     0.00011981    -0.00031985    -0.00026482
H        -6.43272302    -1.76627638    -0.02960778     0.00071816     0.00042956    -0.00046966
H        -4.29348190    -1.66540063     0.47863299     0.00044728    -0.00037511     0.00008714
C        -3.91604376     0.43476242    -0.04253733    -0.00010839     0.00013117    -0.00007669
C        -2.54535182     0.49446361     0.18337088     0.00019578     0.00023930     0.00005911
H        -4.38708148     1.36987662    -0.32756005    -0.00057274     0.00053901     0.00040995
H        -1.94473158    -0.44769135     0.48910045     0.00075083    -0.00024339    -0.00015483
C        -1.79872142     1.69669574     0.01778844    -0.00029087    -0.00006162    -0.00020786
H        -2.38976875     2.56257223    -0.25386125    -0.00056850     0.00075602     0.00025424
N        -0.53024588     1.82207766     0.21376232     0.00022200    -0.00013510     0.00006333
H         0.00631730     2.68322103     0.00444547     0.00012458     0.00055895     0.00008595
H         0.07679562     0.95645000     0.17831496    -0.00057518    -0.00123103     0.00066805
    14
  Step:     2            Position(A)                                  Velocity(au)
C        -6.05890704    -0.77234116    -0.10910122     0.00000799    -0.00007476     0.00004232
C        -4.70185423    -0.71660190     0.12209707    -0.00008170    -0.00008714     0.00005677
H        -6.59670627     0.05523030    -0.53114917     0.00000110    -0.00025906    -0.00026612
H        -6.42637921    -1.76209748    -0.03467567     0.00042774     0.00030468    -0.00045401
H        -4.28782363    -1.66913942     0.47949844     0.00057737    -0.00029357     0.00006485
C        -3.91763980     0.43616267    -0.04342564    -0.00018360     0.00012463    -0.00008531
C        -2.54254893     0.49703980     0.18411533     0.00031447     0.00023019     0.00007653
H        -4.39373635     1.37590428    -0.32325494    -0.00063392     0.00054741     0.00038117
H        -1.93785528    -0.44870439     0.48688922     0.00050032     0.00006649    -0.00025072
C        -1.80247791     1.69588350     0.01546247    -0.00039074    -0.00008317    -0.00021678
H        -2.39581658     2.57146488    -0.25104858    -0.00052155     0.00084404     0.00026491
N        -0.52725885     1.82054878     0.21446709     0.00031967    -0.00014428     0.00006476
H         0.00679231     2.68861589     0.00558232    -0.00004121     0.00040569     0.00012548
H         0.06938125     0.94461189     0.18604481    -0.00077734    -0.00091855     0.00074163
    14
  Step:     3            Position(A)                                  Velocity(au)
C        -6.05881391    -0.77315214    -0.10870139     0.00000909    -0.00007229     0.00003046
C        -4.70263403    -0.71755528     0.12277677    -0.00005883    -0.00008655     0.00006769
H        -6.59734933     0.05274509    -0.53406937    -0.00011660    -0.00019571    -0.00026638
H        -6.42336534    -1.75961087    -0.03954009     0.00011530     0.00013068    -0.00043333
H        -4.28085083    -1.67182298     0.48005172     0.00068760    -0.00018479     0.00003101
C        -3.92006038     0.43748901    -0.04440372    -0.00025860     0.00011762    -0.00009299
C        -2.53847220     0.49949941     0.18504505     0.00042726     0.00021860     0.00009263
H        -4.40094963     1.38185224    -0.31922117    -0.00067491     0.00052479     0.00036000
H        -1.93378617    -0.44623677     0.48361538     0.00024478     0.00038368    -0.00034601
C        -1.80726957     1.69487629     0.01304594    -0.00047854    -0.00009709    -0.00022412
H        -2.40117855     2.58103723    -0.24806577    -0.00044517     0.00088074     0.00028447
N        -0.52325251     1.81892124     0.21517904     0.00040609    -0.00015293     0.00006466
H         0.00541576     2.69209632     0.00719054    -0.00020636     0.00022022     0.00016962
H         0.05978989     0.93635502     0.19453947    -0.00096273    -0.00059114     0.00080751
    14
  Step:     4            Position(A)                                  Velocity(au)
C        -6.05870828    -0.77392274    -0.10843491     0.00000963    -0.00006824     0.00001794
C        -4.70314130    -0.71849541     0.12357789    -0.00003221    -0.00008458     0.00007882
H        -6.59925722     0.05094877    -0.53697676    -0.00022721    -0.00013614    -0.00026207
H        -6.42385671    -1.75923858    -0.04415567    -0.00020610    -0.00006828    -0.00040944
H        -4.27278103    -1.67318203     0.48017680     0.00077842    -0.00005483    -0.00001215
C        -3.92329725     0.43873583    -0.04545995    -0.00033197     0.00011014    -0.00009945
C        -2.53320172     0.50182219     0.18614170     0.00053109     0.00020566     0.00010669
H        -4.40850120     1.38738513    -0.31537932    -0.00069652     0.00047303     0.00034542
H        -1.93250021    -0.44031063     0.47931957    -0.00000130     0.00068929    -0.00043454
C        -1.81294686     1.69375947     0.01055950    -0.00055148    -0.00010309    -0.00022934
H        -2.40555562     2.59073279    -0.24482525    -0.00034451     0.00086865     0.00031075
N        -0.51837477     1.81720309     0.21588160     0.00047724    -0.00016061     0.00006311
H         0.00227774     2.69343368     0.00929317    -0.00035597     0.00002534     0.00021339
H         0.04831979     0.93167966     0.20371058    -0.00111117    -0.00027879     0.00086528
    14
  Step:     5            Position(A)                                  Velocity(au)
C        -6.05860332    -0.77464507    -0.10830896     0.00000843    -0.00006445     0.00000479
C        -4.70333872    -0.71940571     0.12450108    -0.00000276    -0.00008110     0.00008985
H        -6.60232004     0.04976687    -0.53980259    -0.00032526    -0.00008581    -0.00024998
H        -6.42787408    -1.76110461    -0.04849748    -0.00052200    -0.00026407    -0.00038410
H        -4.26382141    -1.67302254     0.47978589     0.00085116     0.00008893    -0.00006180
C        -3.92732283     0.43989847    -0.04657948    -0.00040162     0.00010237    -0.00010440
C        -2.52685352     0.50399863     0.18737918     0.00062245     0.00019225     0.00011803
H        -4.41618731     1.39220064    -0.31166435    -0.00070082     0.00039606     0.00033593
H        -1.93381453    -0.43115726     0.47410904    -0.00022313     0.00096349    -0.00051010
C        -1.81933422     1.69262108     0.00802870    -0.00060757    -0.00010093    -0.00023211
H        -2.40871539     2.60004055    -0.24126742    -0.00022623     0.00081316     0.00034101
N        -0.51281186     1.81540762     0.21655964     0.00053017    -0.00016678     0.00006028
H        -0.00237170     2.69265059     0.01185887    -0.00047611    -0.00015638     0.00025197
H         0.03548102     0.93025602     0.21346908    -0.00120441    -0.00001149     0.00091529
    14
  Step:     6            Position(A)                                  Velocity(au)
C        -6.05852388    -0.77533263    -0.10833018     0.00000460    -0.00006277    -0.00000890
C        -4.70320178    -0.72026968     0.12554345     0.00002816    -0.00007621     0.00010044
H        -6.60637298     0.04907154    -0.54244563    -0.00040628    -0.00004885    -0.00022773
H        -6.43527640    -1.76501566    -0.05255854    -0.00081815    -0.00042931    -0.00035864
H        -4.25416033    -1.67123661     0.47882485     0.00090785     0.00023831    -0.00011480
C        -3.93208342     0.44097548    -0.04774395    -0.00046510     0.00009468    -0.00010752
C        -2.51958435     0.50602792     0.18872376     0.00069764     0.00017917     0.00012594
H        -4.42383287     1.39604970    -0.30803014    -0.00069085     0.00029943     0.00032975
H        -1.93738151    -0.41923255     0.46816020    -0.00040530     0.00118478    -0.00056616
C        -1.82623859     1.69155152     0.00548159    -0.00064557    -0.00009044    -0.00023229
H        -2.41050483     2.60852220    -0.23736490    -0.00009782     0.00072179     0.00037227
N        -0.50677629     1.81355451     0.21720028     0.00056299    -0.00017085     0.00005639
H        -0.00813799     2.69001266     0.01480550    -0.00055468    -0.00030374     0.00028096
H         0.02197104     0.93142832     0.22373434    -0.00122716     0.00018230     0.00095869
    14
  Step:     7            Position(A)                                  Velocity(au)
C        -6.05850259    -0.77601824    -0.10850377    -0.00000239    -0.00006476    -0.00002301
C        -4.70272263    -0.72107297     0.12669836     0.00005902    -0.00007013     0.00011026
H        -6.61120821     0.04869811    -0.54478469    -0.00046707    -0.00002773    -0.00019392
H        -6.44577279    -1.77049652    -0.05634334    -0.00108214    -0.00054178    -0.00033376
H        -4.24396035    -1.66780896     0.47727433     0.00095108     0.00038489    -0.00016799
C        -3.93749787     0.44196967    -0.04893176    -0.00052009     0.00008740    -0.00010855
C        -2.51159132     0.50791839     0.19013435     0.00075323     0.00016743     0.00012979
H        -4.43130107     1.39875115    -0.30445054    -0.00067035     0.00018981     0.00032494
H        -1.94268124    -0.40523792     0.46172313    -0.00053193     0.00132994    -0.00059605
C        -1.83345729     1.69064249     0.00294680    -0.00066497    -0.00007168    -0.00022989
H        -2.41085529     2.61583113    -0.23312338     0.00003297     0.00060363     0.00040150
N        -0.50049540     1.81167005     0.21779318     0.00057493    -0.00017228     0.00005163
H        -0.01450632     2.68600576     0.01800549    -0.00058234    -0.00039856     0.00029676
H         0.00863443     0.93424418     0.23444230    -0.00116891     0.00027875     0.00099757
    14
  Step:     8            Position(A)                                  Velocity(au)
C        -6.05857616    -0.77674930    -0.10883356    -0.00001274    -0.00007142    -0.00003738
C        -4.70191069    -0.72180400     0.12795564     0.00008829    -0.00006307     0.00011899
H        -6.61659105     0.04846485    -0.54668811    -0.00050587    -0.00002315    -0.00014812
H        -6.45895025    -1.77686815    -0.05986008    -0.00130448    -0.00058743    -0.00030958
H        -4.23335372    -1.66281632     0.47514985     0.00098372     0.00052041    -0.00021821
C        -3.94346129     0.44288762    -0.05011872    -0.00056480     0.00008079    -0.00010730
C        -2.50310603     0.50969073     0.19156322     0.00078658     0.00015824     0.00012905
H        -4.43849813     1.40020226    -0.30092138    -0.00064340     0.00007463     0.00031955
H        -1.94901848    -0.39013767     0.45512042    -0.00058765     0.00137526    -0.00059334
C        -1.84078614     1.68998338     0.00045232    -0.00066590    -0.00004502    -0.00022499
H        -2.40978363     2.62172770    -0.22858121     0.00015844     0.00046894     0.00042585
N        -0.49419858     1.80978561     0.21832985     0.00056640    -0.00017080     0.00004615
H        -0.02087771     2.68129340     0.02129768    -0.00055359    -0.00042777     0.00029704
H        -0.00360114     0.93752644     0.24555816    -0.00102630     0.00026347     0.00103476
    14
  Step:     9            Position(A)                                  Velocity(au)
C        -6.05878141    -0.77758075    -0.10932147    -0.00002633    -0.00008314    -0.00005183
C        -4.70079118    -0.72245284     0.12930160     0.00011465    -0.00005514     0.00012633
H        -6.62227502     0.04819173    -0.54802499    -0.00052224    -0.00003418    -0.00009084
H        -6.47431084    -1.78334774    -0.06311595    -0.00147929    -0.00056131    -0.00028582
H        -4.22243967    -1.65642403     0.47250065     0.00100883     0.00063714    -0.00026256
C        -3.94985386     0.44373714    -0.05127923    -0.00059822     0.00007486    -0.00010370
C        -2.49438338     0.51138011     0.19295767     0.00079617     0.00015286     0.00012339
H        -4.44537661     1.40038372    -0.29745984    -0.00061421    -0.00003846     0.00031165
H        -1.95553714    -0.37515145     0.44874276    -0.00056001     0.00130029    -0.00055286
C        -1.84802522     1.68965756    -0.00197533    -0.00064902    -0.00001123    -0.00021775
H        -2.40738915     2.62609017    -0.22380719     0.00027131     0.00032887     0.00044262
N        -0.48810427     1.80793349     0.21880281     0.00053908    -0.00016662     0.00003998
H        -0.02661712     2.67664743     0.02450384    -0.00046790    -0.00038595     0.00028129
H        -0.01381783     0.94000820     0.25707961    -0.00080542     0.00013704     0.00107312
    14
  Step:    10            Position(A)                                  Velocity(au)
C        -6.05915228    -0.77856818    -0.10996740    -0.00004277    -0.00009974    -0.00006616
C        -4.69940246    -0.72301040     0.13071945     0.00013703    -0.00004641     0.00013203
H        -6.62801608     0.04771701    -0.54867549    -0.00051700    -0.00005852    -0.00002352
H        -6.49131250    -1.78914794    -0.06611292    -0.00160413    -0.00046650    -0.00026193
H        -4.21128367    -1.64887762     0.46940594     0.00102942     0.00072836    -0.00029853
C        -3.95654852     0.44452536    -0.05238729    -0.00062001     0.00006949    -0.00009774
C        -2.48568818     0.51303483     0.19426270     0.00078184     0.00015213     0.00011279
H        -4.45193511     1.39936086    -0.29410335    -0.00058688    -0.00014187     0.00029951
H        -1.96126976    -0.36169123     0.44302563    -0.00044323     0.00109399    -0.00047253
C        -1.85498470     1.68973776    -0.00431144    -0.00061540     0.00002855    -0.00020833
H        -2.40384818     2.62892239    -0.21889802     0.00036491     0.00019504     0.00044945
N        -0.48240512     1.80614052     0.21920457     0.00049593    -0.00016057     0.00003310
H        -0.03111397     2.67284995     0.02745146    -0.00033048    -0.00027746     0.00025119
H        -0.02122116     0.94052445     0.26903464    -0.00052280    -0.00008121     0.00111474
    14
  Step:    11            Position(A)                                  Velocity(au)
C        -6.05971717    -0.77976273    -0.11076891    -0.00006147    -0.00012064    -0.00008016
C        -4.69779335    -0.72346805     0.13218990     0.00015461    -0.00003691     0.00013588
H        -6.63358535     0.04691151    -0.54853946    -0.00049200    -0.00009268     0.00005174
H        -6.50940436    -1.79355331    -0.06884623    -0.00167962    -0.00031210    -0.00023729
H        -4.19991917    -1.64048981     0.46596977     0.00104817     0.00078877    -0.00032419
C        -3.96341772     0.44525731    -0.05341745    -0.00063034     0.00006444    -0.00008951
C        -2.47727914     0.51470815     0.19542518     0.00074493     0.00015579     0.00009767
H        -4.45821563     1.39728000    -0.29090745    -0.00056511    -0.00022858     0.00028162
H        -1.96523356    -0.35121832     0.43840517    -0.00024227     0.00076210    -0.00035522
C        -1.86148834     1.69028216    -0.00653303    -0.00056642     0.00007284    -0.00019689
H        -2.39940606     2.63035708    -0.21397469     0.00043341     0.00007914     0.00044430
N        -0.47725489     1.80442069     0.21952693     0.00044095    -0.00015405     0.00002544
H        -0.03384697     2.67057751     0.02999912    -0.00015221    -0.00011730     0.00021069
H        -0.02525503     0.93823149     0.28146673    -0.00020411    -0.00035349     0.00115988
    14
  Step:    12            Position(A)                                  Velocity(au)
C        -6.06049703    -0.78120739    -0.11172100    -0.00008168    -0.00014501    -0.00009357
C        -4.69602002    -0.72381779     0.13369199     0.00016684    -0.00002675     0.00013777
H        -6.63877961     0.04568943    -0.54754365    -0.00044996    -0.00013236     0.00013226
H        -6.52805741    -1.79597579    -0.07130408    -0.00170876    -0.00011118    -0.00021129
H        -4.18835286    -1.63162186     0.46231375     0.00106714     0.00081502    -0.00033833
C        -3.97033837     0.44593518    -0.05434558    -0.00062978     0.00005947    -0.00007917
C        -2.46939145     0.51644303     0.19639936     0.00068836     0.00016204     0.00007897
H        -4.46429801     1.39436017    -0.28794236    -0.00055200    -0.00029262     0.00025683
H        -1.96656990    -0.34501890     0.43525442     0.00002442     0.00033273    -0.00020998
C        -1.86737616     1.69133119    -0.00861879    -0.00050360     0.00011993    -0.00018356
H        -2.39436661     2.63065374    -0.20917809     0.00047213    -0.00000777     0.00042564
N        -0.47275839     1.80277031     0.21976114     0.00037878    -0.00014867     0.00001698
H        -0.03444395     2.67028373     0.03206072     0.00005131     0.00007002     0.00016562
H        -0.02568652     0.93279127     0.29440932     0.00011984    -0.00062980     0.00120632
    14
  Step:    13            Position(A)                                  Velocity(au)
C        -6.06150398    -0.78293508    -0.11281600    -0.00010255    -0.00017189    -0.00010616
C        -4.69414331    -0.72405326     0.13520395     0.00017343    -0.00001615     0.00013769
H        -6.64342916     0.04401580    -0.54564595    -0.00039419    -0.00017274     0.00021511
H        -6.54678681    -1.79598564    -0.07346853    -0.00169633     0.00012120    -0.00018342
H        -4.17657349    -1.62265959     0.45856814     0.00108737     0.00080619    -0.00034064
C        -3.97719532     0.44655841    -0.05514945    -0.00061916     0.00005437    -0.00006690
C        -2.46221996     0.51825298     0.19715275     0.00061637     0.00016750     0.00005809
H        -4.47029160     1.39087848    -0.28528875    -0.00054971    -0.00032960     0.00022444
H        -1.96469931    -0.34393929     0.43381154     0.00032611    -0.00014442    -0.00005152
C        -1.87250554     1.69290584    -0.01054873    -0.00042859     0.00016803    -0.00016845
H        -2.38907737     2.63018701    -0.20466305     0.00047800    -0.00005630     0.00039254
N        -0.46896831     1.80116830     0.21989839     0.00031402    -0.00014573     0.00000775
H        -0.03272443     2.67210931     0.03362243     0.00026190     0.00025420     0.00012281
H        -0.02263333     0.92445335     0.30785726     0.00041868    -0.00085869     0.00124955
    14
  Step:    14            Position(A)                                  Velocity(au)
C        -6.06274060    -0.78496790    -0.11404350    -0.00012322    -0.00020029    -0.00011768
C        -4.69222586    -0.72417114     0.13670427     0.00017434    -0.00000547     0.00013571
H        -6.64740319     0.04191045    -0.54283774    -0.00032835    -0.00020877     0.00029720
H        -6.56516779    -1.79332433    -0.07531667    -0.00164838     0.00036918    -0.00015327
H        -4.16456447    -1.61398501     0.45486158     0.00110868     0.00076398    -0.00033176
C        -3.98388368     0.44712453    -0.05580926    -0.00059948     0.00004901    -0.00005296
C        -2.45590720     0.52010738     0.19767026     0.00053389     0.00016802     0.00003666
H        -4.47632387     1.38714944    -0.28303228    -0.00055923    -0.00033734     0.00018429
H        -1.95943558    -0.34817834     0.43412730     0.00062550    -0.00060716     0.00010243
C        -1.87675241     1.69500721    -0.01230402    -0.00034314     0.00021538    -0.00015167
H        -2.38390944     2.62942208    -0.20059062     0.00045003    -0.00005994     0.00034486
N        -0.46588856     1.79958219     0.21993074     0.00025070    -0.00014586    -0.00000213
H        -0.02871449     2.67584476     0.03474734     0.00046139     0.00040445     0.00008885
H        -0.01652714     0.91400588     0.32174554     0.00066764    -0.00099825     0.00128383
    14
  Step:    15            Position(A)                                  Velocity(au)
C        -6.06419964    -0.78731680    -0.11539052    -0.00014277    -0.00022917    -0.00012791
C        -4.69032929    -0.72417293     0.13817278     0.00016978     0.00000477     0.00013198
H        -6.65061252     0.03944852    -0.53914406    -0.00025628    -0.00023553     0.00037555
H        -6.58284827    -1.78790917    -0.07682160    -0.00157203     0.00061675    -0.00012051
H        -4.15231905    -1.60594603     0.45131029     0.00112941     0.00069283    -0.00031326
C        -3.99031019     0.44763062    -0.05630802    -0.00057186     0.00004345    -0.00003760
C        -2.45054002     0.52192868     0.19795466     0.00044577     0.00015983     0.00001613
H        -4.48252582     1.38349853    -0.28125705    -0.00058015    -0.00031619     0.00013684
H        -1.95101525    -0.35722213     0.43605246     0.00088709    -0.00099547     0.00023517
C        -1.88001230     1.69761766    -0.01386690    -0.00024908     0.00026037    -0.00013332
H        -2.37923213     2.62887564    -0.19711858     0.00038972    -0.00001636     0.00028339
N        -0.46348377     1.79797736     0.21985183     0.00019182    -0.00014884    -0.00001250
H        -0.02263075     2.68095743     0.03556628     0.00063426     0.00049507     0.00006901
H        -0.00802739     0.90261479     0.33594349     0.00085083    -0.00102374     0.00130365
    14
  Step:    16            Position(A)                                  Velocity(au)
C        -6.06586398    -0.78998140    -0.11684188    -0.00016032    -0.00025749    -0.00013668
C        -4.68851156    -0.72406672     0.13959160     0.00016020     0.00001391     0.00012676
H        -6.65300976     0.03675778    -0.53462188    -0.00018167    -0.00024849     0.00044740
H        -6.59955886    -1.77983172    -0.07795316    -0.00147521     0.00084820    -0.00008487
H        -4.13985650    -1.59882797     0.44800836     0.00114651     0.00059954    -0.00028754
C        -3.99639414     0.44807508    -0.05663193    -0.00053744     0.00003789    -0.00002115
C        -2.44615508     0.52360400     0.19802314     0.00035607     0.00014070    -0.00000244
H        -4.48901575     1.38023227    -0.28003857    -0.00061054    -0.00026928     0.00008321
H        -1.94002887    -0.36995613     0.43927204     0.00108451    -0.00126514     0.00033449
C        -1.88220141     1.70070327    -0.01522065    -0.00014837     0.00030169    -0.00011350
H        -2.37538353     2.62906424    -0.19439083     0.00030145     0.00007152     0.00020995
N        -0.46169224     1.79632600     0.21965721     0.00013919    -0.00015379    -0.00002320
H        -0.01483887     2.68667526     0.03625710     0.00076944     0.00050946     0.00006638
H         0.00208648     0.89160963     0.35026547     0.00096181    -0.00092931     0.00130497
    14
  Step:    17            Position(A)                                  Velocity(au)
C        -6.06770692    -0.79294985    -0.11838061    -0.00017501    -0.00028419    -0.00014384
C        -4.68682459    -0.72386856     0.14094590     0.00014623     0.00002119     0.00012035
H        -6.65458687     0.03401236    -0.52935643    -0.00010789    -0.00024386     0.00051041
H        -6.61512130    -1.76935306    -0.07867827    -0.00136659     0.00104838    -0.00004607
H        -4.12723694    -1.59283002     0.44501990     0.00115578     0.00049260    -0.00025750
C        -4.00206780     0.44845962    -0.05677062    -0.00049744     0.00003273    -0.00000391
C        -2.44275033     0.52500673     0.19790128     0.00026773     0.00011044    -0.00001858
H        -4.49588246     1.37760751    -0.27943662    -0.00064700    -0.00020244     0.00002513
H        -1.92728952    -0.38489948     0.44336999     0.00120403    -0.00139482     0.00039440
C        -1.88325819     1.70421777    -0.01634983    -0.00004313     0.00033843    -0.00009234
H        -2.37263730     2.63044030    -0.19252560     0.00019254     0.00019491     0.00012735
N        -0.46043881     1.79461284     0.21934437     0.00009354    -0.00015948    -0.00003404
H        -0.00579769     2.69210285     0.03701846     0.00086106     0.00044182     0.00008169
H         0.01301409     0.88228424     0.36449230     0.00100218    -0.00072512     0.00128589
    14
  Step:    18            Position(A)                                  Velocity(au)
C        -6.06969256    -0.79619863    -0.11998864    -0.00018603    -0.00030820    -0.00014933
C        -4.68531256    -0.72360304     0.14222441     0.00012862     0.00002586     0.00011306
H        -6.65537010     0.03142296    -0.52345570    -0.00003774    -0.00021890     0.00056283
H        -6.62945566    -1.75689634    -0.07896108    -0.00125536     0.00120305    -0.00000387
H        -4.11457167    -1.58805133     0.44237495     0.00115238     0.00038126    -0.00022628
C        -4.00727665     0.44879102    -0.05671742    -0.00045307     0.00002846     0.00001377
C        -2.44029790     0.52602000     0.19761656     0.00018266     0.00007076    -0.00003235
H        -4.50317001     1.37580347    -0.27948887    -0.00068494    -0.00012367    -0.00003518
H        -1.91368832    -0.40047045     0.44790024     0.00124366    -0.00138488     0.00041469
C        -1.88314498     1.70810700    -0.01724069     0.00006441     0.00037004    -0.00007001
H        -2.37117139     2.63332821    -0.19160483     0.00007282     0.00033977     0.00003927
N        -0.45964595     1.79283698     0.21891254     0.00005472    -0.00016467    -0.00004489
H         0.00399847     2.69634091     0.03804421     0.00090820     0.00029653     0.00011354
H         0.02401117     0.87574614     0.37839669     0.00097929    -0.00043216     0.00124670
    14
  Step:    19            Position(A)                                  Velocity(au)
C        -6.07177666    -0.79969240    -0.12164754    -0.00019268    -0.00032846    -0.00015316
C        -4.68401080    -0.72330286     0.14341939     0.00010820     0.00002724     0.00010522
H        -6.65541241     0.02922340    -0.51704334     0.00002680    -0.00017229     0.00060362
H        -6.64258474    -1.74303404    -0.07876293    -0.00115089     0.00129950     0.00004200
H        -4.10202652    -1.58448918     0.44006965     0.00113153     0.00027435    -0.00019676
C        -4.01197958     0.44908221    -0.05646944    -0.00040553     0.00002566     0.00003154
C        -2.43875429     0.52655469     0.19719355     0.00010197     0.00002464    -0.00004413
H        -4.51086678     1.37490209    -0.28020633    -0.00071906    -0.00004221    -0.00009519
H        -1.90008206    -0.41519637     0.45244208     0.00120956    -0.00125096     0.00039917
C        -1.88184917     1.71231312    -0.01788150     0.00017194     0.00039634    -0.00004673
H        -2.37104422     2.63787349    -0.19166642    -0.00004625     0.00048858    -0.00005011
N        -0.45924180     1.79101041     0.21836233     0.00002196    -0.00016829    -0.00005564
H         0.01407102     2.69859007     0.03950237     0.00091410     0.00008613     0.00015893
H         0.03443802     0.87282991     0.39176620     0.00090400    -0.00007725     0.00118964
    14
  Step:    20            Position(A)                                  Velocity(au)
C        -6.07390789    -0.80338440    -0.12333930    -0.00019442    -0.00034398    -0.00015540
C        -4.68294549    -0.72300722     0.14452630     0.00008579     0.00002484     0.00009708
H        -6.65478373     0.02765372    -0.51025035     0.00008467    -0.00010434     0.00063250
H        -6.65463367    -1.72846736    -0.07804232    -0.00106216     0.00132746     0.00009176
H        -4.08981736    -1.58204930     0.43807053     0.00108920     0.00017933    -0.00017130
C        -4.01614841     0.44935234    -0.05602745    -0.00035598     0.00002484     0.00004908
C        -2.43806720     0.52655905     0.19665106     0.00002629    -0.00002439    -0.00005450
H        -4.51890090     1.37488005    -0.28157130    -0.00074398     0.00003255    -0.00015230
H        -1.88722694    -0.42783762     0.45663275     0.00111216    -0.00101658     0.00035372
C        -1.87938343     1.71677775    -0.01826291     0.00027720     0.00041735    -0.00002270
H        -2.37218331     2.64401678    -0.19270100    -0.00015290     0.00062283    -0.00013656
N        -0.45916546     1.78915535     0.21769535    -0.00000586    -0.00016954    -0.00006622