|===============================================================================
|
|  DFTB+ release 20.1
|
|  Copyright (C) 2006 - 2020  DFTB+ developers group
|
|===============================================================================
|
|  When publishing results obtained with DFTB+, please cite the following
|  reference:
|
|  * DFTB+, a software package for efficient approximate density functional
|    theory based atomistic simulations, J. Chem. Phys. 152, 124101 (2020).
|    [doi: 10.1063/1.5143190]
|
|  You should also cite additional publications crediting the parametrization
|  data you use. Please consult the documentation of the SK-files for the
|  references.
|
|===============================================================================

Reading input file 'dftb_in.hsd'
Parser version: 8

--------------------------------------------------------------------------------
Reading SK-files:
Done.


Processed input in HSD format written to 'dftb_pin.hsd'

Starting initialization...
--------------------------------------------------------------------------------
OpenMP threads:              1
Chosen random seed:          511936000
Mode:                        Static calculation
Self consistent charges:     Yes
SCC-tolerance:                 0.100000E-05
Max. scc iterations:                   1000
Shell resolved Hubbard:      No
Spin polarisation:           No
Nr. of up electrons:             6.000000
Nr. of down electrons:           6.000000
Periodic boundaries:         No
Electronic solver:           Relatively robust
Maximal SCC-cycles:                    1000
Initial charges:             Set automatically (system chrg:   0.100E+01)
Included shells:             C:  s, p
                             N:  s, p
                             H:  s
Spin coupling constants:     C   1(s)-1(s):  -0.455900E-01
                             C   1(s)-2(p):  -0.293000E-01
                             C   2(p)-1(s):  -0.293000E-01
                             C   2(p)-2(p):  -0.275500E-01
                             N   1(s)-1(s):  -0.468700E-01
                             N   1(s)-2(p):  -0.317000E-01
                             N   2(p)-1(s):  -0.317000E-01
                             N   2(p)-2(p):  -0.307200E-01
                             H   1(s)-1(s):  -0.792500E-01
Range separated hybrid:      Yes
  Screening parameter omega:   0.300000E+00
  Range separated algorithm:   MatrixBased
Extra options:
                             Mulliken analysis
                             Force calculation
Force type                   original
                             Eigenvector printing


REKS Calcuation:             Yes
SSR(2,2) Calcuation:         Yes
Energy Functional:           (PPS+OSS)/2
Number of Core Orbitals:                  5
Number of Active Orbitals:                2
Number of Basis:                         12
Number of States:                         2
State-Averaging Weight:          0.500000
                                 0.500000
State of Interest:                        1
Initial Guess:               Diagonalize H0 matrix
Newton-Raphson for FON opt:  Yes
NR max. Iterations:                      50
Level Shifting:              Yes
Shift Value:                     0.300000
W Scale Factor:              C  =    3.000000
                             N  =    3.000000
                             H  =    3.000000
Transition Dipole:           No
Gradient of Microstate:      No
CP-REKS Solver:              Preconditioned Conjugate-Gradient
CG max. Iterations:                     100
CG Tolerance:                  0.100000E-07
Memory for A and Hxc:        Direct Updating Without Saving
Non-Adiabatic Coupling:      Yes

--------------------------------------------------------------------------------

***  Geometry step: 0

  iSCC       reks energy        Diff energy         x_a       SCC error   
    1       -6.2790043380       0.0000000000     0.999968    1.19852003
    2       -6.2813818305      -0.0023774926     0.999972    0.02245195
    3       -6.2818353271      -0.0004534965     0.999974    0.00817914
    4       -6.2819553143      -0.0001199872     0.999975    0.00438668
    5       -6.2819968619      -0.0000415477     0.999976    0.00249778
    6       -6.2820149755      -0.0000181136     0.999977    0.00199845
    7       -6.2820241805      -0.0000092049     0.999977    0.00158655
    8       -6.2820292707      -0.0000050903     0.999977    0.00125245
    9       -6.2820322098      -0.0000029390     0.999977    0.00098540
   10       -6.2820339449      -0.0000017351     0.999978    0.00077378
   11       -6.2820349817      -0.0000010369     0.999978    0.00060690
   12       -6.2820356058      -0.0000006241     0.999978    0.00047567
   13       -6.2820359833      -0.0000003774     0.999978    0.00037265
   14       -6.2820362123      -0.0000002290     0.999978    0.00029185
   15       -6.2820363515      -0.0000001393     0.999978    0.00022853
   16       -6.2820364364      -0.0000000849     0.999978    0.00017893
   17       -6.2820364882      -0.0000000518     0.999978    0.00014008
   18       -6.2820365198      -0.0000000316     0.999978    0.00010967
   19       -6.2820365391      -0.0000000193     0.999978    0.00008586
   20       -6.2820365509      -0.0000000118     0.999978    0.00006722
   21       -6.2820365582      -0.0000000072     0.999978    0.00005262
   22       -6.2820365626      -0.0000000044     0.999978    0.00004120
   23       -6.2820365653      -0.0000000027     0.999978    0.00003226
   24       -6.2820365670      -0.0000000017     0.999978    0.00002526
   25       -6.2820365680      -0.0000000010     0.999978    0.00001978
   26       -6.2820365686      -0.0000000006     0.999978    0.00001549
   27       -6.2820365690      -0.0000000004     0.999978    0.00001213
   28       -6.2820365693      -0.0000000002     0.999978    0.00000950
   29       -6.2820365694      -0.0000000001     0.999978    0.00000744
   30       -6.2820365695      -0.0000000001     0.999978    0.00000582
   31       -6.2820365695      -0.0000000001     0.999978    0.00000456
   32       -6.2820365696      -0.0000000000     0.999978    0.00000357
   33       -6.2820365696      -0.0000000000     0.999978    0.00000280
   34       -6.2820365696      -0.0000000000     0.999978    0.00000219
   35       -6.2820365696      -0.0000000000     0.999978    0.00000172
   36       -6.2820365696      -0.0000000000     0.999978    0.00000134
   37       -6.2820365696      -0.0000000000     0.999978    0.00000105
   38       -6.2820365696      -0.0000000000     0.999978    0.00000082
  
--------------------------------------------------
 Final SA-REKS(2,2) energy:      -6.28203657
  
 State     Energy      FON(1)    FON(2)   Spin
  PPS   -6.41326176   1.999956  0.000044  0.00
  OSS   -6.15081138   1.000000  1.000000  0.00
 Trip   -6.22750394   1.000000  1.000000  1.00
--------------------------------------------------

 Lagrangian Wab:  -0.00012541 -0.00012541

--------------------------------------------------
 SSR: 2SI-2SA-REKS(2,2) Hamiltonian matrix
               PPS           OSS
   PPS    -6.41326176   -0.00017652
   OSS    -0.00017652   -6.15081138
--------------------------------------------------

----------------------------------------------------------------
 SSR: 2SI-2SA-REKS(2,2) states
                    E_n       C_{PPS}    C_{OSS}
 SSR state  1   -6.41326188  -1.000000  -0.000673
 SSR state  2   -6.15081126   0.000673  -1.000000
----------------------------------------------------------------

 unrelaxed SSR FONs for S0:  1.999956  0.000044

Total Energy:                       -6.4132618780 H         -174.5137 eV
Extrapolated to 0:                  -6.4132618780 H         -174.5137 eV

----------------------------------------------------------------------------------
 Solving CP-REKS equation for  1 state vector...
----------------------------------------------------------------------------------
  CG solver: Constructing Y initial guess
  CG solver: Iteration    1    eps =    0.000023803749
  CG solver: Iteration    2    eps =    0.000000536173
  CG solver: Iteration    3    eps =    0.000000184309
  CG solver: Iteration    4    eps =    0.000000003968
  Convergence reached in CG solver after    4 iterations
  CG solver: Calculating converged R, Z, Q2 matrix
----------------------------------------------------------------------------------

----------------------------------------------------------------------------------
 Solving CP-REKS equation for SI between  1 and  2 state vectors...
----------------------------------------------------------------------------------
  CG solver: Constructing Y initial guess
  CG solver: Iteration    1    eps =    0.000360231747
  CG solver: Iteration    2    eps =    0.000091467198
  CG solver: Iteration    3    eps =    0.000002728658
  CG solver: Iteration    4    eps =    0.000000116050
  CG solver: Iteration    5    eps =    0.000000007046
  Convergence reached in CG solver after    5 iterations
  CG solver: Calculating converged R, Z, Q2 matrix
----------------------------------------------------------------------------------

--------------------------------------------------
 Gradient Information
--------------------------------------------------
           1 st state (SSR)
    -0.00745410    -0.01647838     0.03732811
     0.03015872    -0.00357427    -0.05116742
     0.00023503     0.00550276    -0.00620729
    -0.01232279     0.00546107     0.00844061
    -0.01064831     0.00723952     0.00611735
     0.00003145     0.00184931     0.00548863

           2 st state (SSR)
     0.00890918    -0.00313589     0.14799633
    -0.01268200    -0.00151220    -0.17962104
    -0.00414361     0.01218261     0.01475161
     0.00313494    -0.00092461    -0.00012112
     0.00495337     0.01272661    -0.00397836
    -0.00017187    -0.01933652     0.02097258
--------------------------------------------------
 Coupling Information
--------------------------------------------------
 between  1 and  2 states
--------------------------------------------------
 g vector - difference gradient
    -0.00817966    -0.00666507    -0.05533354
     0.02142262    -0.00104161     0.06422668
     0.00219583    -0.00334061    -0.01047940
    -0.00772167     0.00319772     0.00428262
    -0.00780951    -0.00274070     0.00504609
     0.00009240     0.01059028    -0.00774246

 h vector - derivative coupling
    -0.00147513    -0.00459986    -0.00046390
    -0.00166418     0.00786560     0.00013893
    -0.00483487     0.00050467    -0.00004704
    -0.00535430    -0.00362493    -0.00130044
     0.00644192    -0.00211355     0.00131836
     0.00688656     0.00196807     0.00035409

 G vector - GDV
    -0.00818164    -0.00667125    -0.05533411
     0.02142036    -0.00103103     0.06422681
     0.00218932    -0.00333993    -0.01047945
    -0.00772886     0.00319284     0.00428087
    -0.00780084    -0.00274354     0.00504786
     0.00010166     0.01059291    -0.00774197

 H vector - DCV - non-adiabatic coupling
    -0.00557866    -0.01749239    -0.00148398
    -0.00645073     0.02997516     0.00020019
    -0.01843325     0.00194003    -0.00012552
    -0.02036156    -0.01382825    -0.00497693
     0.02458526    -0.00803907     0.00499741
     0.02623894     0.00744452     0.00138883
--------------------------------------------------


--------------------------------------------------------------------------------
DFTB+ running times                          cpu [s]             wall clock [s]
--------------------------------------------------------------------------------
SCC                                    +     0.01  ( 62.0%)      0.01  ( 56.0%)
--------------------------------------------------------------------------------
Missing                                +     0.01  ( 38.0%)      0.01  ( 44.0%)
Total                                  =     0.02  (100.0%)      0.03  (100.0%)
--------------------------------------------------------------------------------
