 Fermi distribution function

Calculation with static geometry


********************************************************************************
 iSCC Total electronic   Diff electronic      SCC error    
   11   -0.53528551E+01   -0.11867662E-09    0.95561451E-07
********************************************************************************

 Total charge:     1.00000000

 Atomic gross charges (e)
 Atom           Charge
    1       0.30987995
    2      -0.19777422
    3       0.15695709
    4       0.26532573
    5       0.29955718
    6       0.16605428

Nr. of electrons (up):     12.00000000
Atom populations (up)
 Atom       Population
    1       3.69012005
    2       5.19777422
    3       0.84304291
    4       0.73467427
    5       0.70044282
    6       0.83394572

l-shell populations (up)
 Atom Sh.   l       Population
    1   1   0       1.32610777
    1   2   1       2.36401229
    2   1   0       1.44919486
    2   2   1       3.74857936
    3   1   0       0.84304291
    4   1   0       0.73467427
    5   1   0       0.70044282
    6   1   0       0.83394572

Orbital populations (up)
 Atom Sh.   l   m       Population  Label
    1   1   0   0       1.32610777  s
    1   2   1  -1       0.52453075  p_y
    1   2   1   0       0.89534384  p_z
    1   2   1   1       0.94413770  p_x
    2   1   0   0       1.44919486  s
    2   2   1  -1       1.32220264  p_y
    2   2   1   0       1.12926382  p_z
    2   2   1   1       1.29711290  p_x
    3   1   0   0       0.84304291  s
    4   1   0   0       0.73467427  s
    5   1   0   0       0.70044282  s
    6   1   0   0       0.83394572  s

Fermi level:                        -0.4982352312 H          -13.5577 eV
Band energy:                        -8.8240826096 H         -240.1155 eV
TS:                                  0.0000000000 H            0.0000 eV
Band free energy (E-TS):            -8.8240826096 H         -240.1155 eV
Extrapolated E(0K):                 -8.8240826096 H         -240.1155 eV
Input / Output electrons (q):     12.0000000000     12.0000000000

Energy H0:                          -5.4886903578 H         -149.3549 eV
Energy SCC:                          0.1358352778 H            3.6963 eV
Total Electronic energy:            -5.3528550801 H         -145.6586 eV
Repulsive energy:                    0.1732157898 H            4.7134 eV
Total energy:                       -5.1796392902 H         -140.9452 eV
Extrapolated to 0:                  -5.1796392902 H         -140.9452 eV
Total Mermin free energy:           -5.1796392902 H         -140.9452 eV
Force related energy:               -5.1796392902 H         -140.9452 eV

SCC converged

Excitation Energy:                   0.0939914927 H            2.5576 eV

Total Forces
    1      0.009780998967     -0.008541425982      0.047326631089
    2     -0.006307674666     -0.006024379529     -0.052028367861
    3     -0.006772768374     -0.009080864244     -0.003715048864
    4     -0.007249731700      0.018058941992     -0.002607601181
    5      0.006199614295     -0.010456385968      0.005118986466
    6      0.004349561477      0.016044113730      0.005905400350

Maximal derivative component:        0.520284E-01 au


