|===============================================================================
|
|  DFTB+ release 20.1
|
|  Copyright (C) 2006 - 2020  DFTB+ developers group
|
|===============================================================================
|
|  When publishing results obtained with DFTB+, please cite the following
|  reference:
|
|  * DFTB+, a software package for efficient approximate density functional
|    theory based atomistic simulations, J. Chem. Phys. 152, 124101 (2020).
|    [doi: 10.1063/1.5143190]
|
|  You should also cite additional publications crediting the parametrization
|  data you use. Please consult the documentation of the SK-files for the
|  references.
|
|===============================================================================

Reading input file 'dftb_in.hsd'
Parser version: 8

--------------------------------------------------------------------------------
Reading SK-files:
Done.


Processed input in HSD format written to 'dftb_pin.hsd'

Starting initialization...
--------------------------------------------------------------------------------
OpenMP threads:              1
Chosen random seed:          500780091
Mode:                        Static calculation
Self consistent charges:     Yes
SCC-tolerance:                 0.100000E-05
Max. scc iterations:                   1000
Shell resolved Hubbard:      No
Spin polarisation:           No
Nr. of up electrons:            16.000000
Nr. of down electrons:          16.000000
Periodic boundaries:         No
Electronic solver:           Relatively robust
Maximal SCC-cycles:                    1000
Initial charges:             Set automatically (system chrg:   0.100E+01)
Included shells:             C:  s, p
                             H:  s
                             N:  s, p
Spin coupling constants:     C   1(s)-1(s):  -0.455900E-01
                             C   1(s)-2(p):  -0.293000E-01
                             C   2(p)-1(s):  -0.293000E-01
                             C   2(p)-2(p):  -0.275500E-01
                             H   1(s)-1(s):  -0.792500E-01
                             N   1(s)-1(s):  -0.468700E-01
                             N   1(s)-2(p):  -0.317000E-01
                             N   2(p)-1(s):  -0.317000E-01
                             N   2(p)-2(p):  -0.307200E-01
Range separated hybrid:      Yes
  Screening parameter omega:   0.300000E+00
  Range separated algorithm:   MatrixBased
Extra options:
                             Mulliken analysis
                             Force calculation
Force type                   original
                             Eigenvector printing


REKS Calcuation:             Yes
SSR(2,2) Calcuation:         Yes
Energy Functional:           (PPS+OSS)/2
Number of Core Orbitals:                 15
Number of Active Orbitals:                2
Number of Basis:                         32
Number of States:                         2
State-Averaging Weight:          0.500000
                                 0.500000
State of Interest:                        1
Initial Guess:               Diagonalize H0 matrix
Newton-Raphson for FON opt:  Yes
NR max. Iterations:                      50
Level Shifting:              Yes
Shift Value:                     0.300000
W Scale Factor:              C  =    3.200000
                             H  =    3.200000
                             N  =    3.200000
Transition Dipole:           No
Gradient of Microstate:      No
CP-REKS Solver:              Preconditioned Conjugate-Gradient
CG max. Iterations:                     100
CG Tolerance:                  0.100000E-07
Memory for A and Hxc:        Direct Updating Without Saving
Non-Adiabatic Coupling:      Yes

--------------------------------------------------------------------------------

***  Geometry step: 0

  iSCC       reks energy        Diff energy         x_a       SCC error   
    1      -16.4025545164       0.0000000000     0.990486    1.24002068
    2      -16.4236992850      -0.0211447687     0.998527    0.07005677
    3      -16.4279981446      -0.0042988596     0.999472    0.03209055
    4      -16.4294529019      -0.0014547572     0.999710    0.01623083
    5      -16.4300720576      -0.0006191557     0.999802    0.00908158
    6      -16.4303709148      -0.0002988572     0.999846    0.00541326
    7      -16.4305282962      -0.0001573815     0.999871    0.00344273
    8      -16.4306166880      -0.0000883918     0.999886    0.00277293
    9      -16.4306688901      -0.0000522021     0.999895    0.00222904
   10      -16.4307010094      -0.0000321193     0.999901    0.00179058
   11      -16.4307214594      -0.0000204500     0.999906    0.00143911
   12      -16.4307348579      -0.0000133985     0.999909    0.00115834
   13      -16.4307438486      -0.0000089907     0.999911    0.00093439
   14      -16.4307500030      -0.0000061544     0.999912    0.00075576
   15      -16.4307542868      -0.0000042838     0.999914    0.00061311
   16      -16.4307573115      -0.0000030247     0.999914    0.00049896
   17      -16.4307594741      -0.0000021626     0.999915    0.00040737
   18      -16.4307610379      -0.0000015638     0.999916    0.00033365
   19      -16.4307621808      -0.0000011429     0.999916    0.00027413
   20      -16.4307630247      -0.0000008439     0.999916    0.00022590
   21      -16.4307636543      -0.0000006296     0.999916    0.00018669
   22      -16.4307641287      -0.0000004744     0.999917    0.00015471
   23      -16.4307644900      -0.0000003612     0.999917    0.00012854
   24      -16.4307647679      -0.0000002779     0.999917    0.00010926
   25      -16.4307649839      -0.0000002160     0.999917    0.00009317
   26      -16.4307651535      -0.0000001696     0.999917    0.00008025
   27      -16.4307652880      -0.0000001345     0.999917    0.00007001
   28      -16.4307653956      -0.0000001077     0.999917    0.00006123
   29      -16.4307654826      -0.0000000869     0.999917    0.00005368
   30      -16.4307655534      -0.0000000708     0.999917    0.00004718
   31      -16.4307656115      -0.0000000581     0.999917    0.00004157
   32      -16.4307656595      -0.0000000480     0.999917    0.00003672
   33      -16.4307656994      -0.0000000399     0.999917    0.00003327
   34      -16.4307657328      -0.0000000334     0.999917    0.00003145
   35      -16.4307657608      -0.0000000280     0.999917    0.00002965
   36      -16.4307657844      -0.0000000236     0.999917    0.00002789
   37      -16.4307658044      -0.0000000200     0.999917    0.00002617
   38      -16.4307658214      -0.0000000170     0.999917    0.00002452
   39      -16.4307658358      -0.0000000144     0.999917    0.00002293
   40      -16.4307658481      -0.0000000123     0.999917    0.00002142
   41      -16.4307658586      -0.0000000105     0.999917    0.00001999
   42      -16.4307658677      -0.0000000090     0.999917    0.00001863
   43      -16.4307658754      -0.0000000077     0.999917    0.00001735
   44      -16.4307658820      -0.0000000066     0.999917    0.00001615
   45      -16.4307658877      -0.0000000057     0.999917    0.00001501
   46      -16.4307658926      -0.0000000049     0.999917    0.00001395
   47      -16.4307658968      -0.0000000042     0.999917    0.00001296
   48      -16.4307659004      -0.0000000036     0.999917    0.00001203
   49      -16.4307659035      -0.0000000031     0.999917    0.00001117
   50      -16.4307659062      -0.0000000027     0.999917    0.00001036
   51      -16.4307659085      -0.0000000023     0.999917    0.00000961
   52      -16.4307659105      -0.0000000020     0.999917    0.00000891
   53      -16.4307659123      -0.0000000017     0.999917    0.00000826
   54      -16.4307659138      -0.0000000015     0.999917    0.00000765
   55      -16.4307659150      -0.0000000013     0.999917    0.00000709
   56      -16.4307659161      -0.0000000011     0.999917    0.00000657
   57      -16.4307659171      -0.0000000010     0.999917    0.00000609
   58      -16.4307659179      -0.0000000008     0.999917    0.00000564
   59      -16.4307659186      -0.0000000007     0.999917    0.00000523
   60      -16.4307659193      -0.0000000006     0.999917    0.00000484
   61      -16.4307659198      -0.0000000005     0.999917    0.00000448
   62      -16.4307659202      -0.0000000005     0.999917    0.00000415
   63      -16.4307659206      -0.0000000004     0.999917    0.00000385
   64      -16.4307659210      -0.0000000003     0.999917    0.00000356
   65      -16.4307659213      -0.0000000003     0.999917    0.00000330
   66      -16.4307659215      -0.0000000003     0.999917    0.00000306
   67      -16.4307659218      -0.0000000002     0.999917    0.00000283
   68      -16.4307659219      -0.0000000002     0.999917    0.00000262
   69      -16.4307659221      -0.0000000002     0.999917    0.00000243
   70      -16.4307659223      -0.0000000001     0.999917    0.00000225
   71      -16.4307659224      -0.0000000001     0.999917    0.00000209
   72      -16.4307659225      -0.0000000001     0.999917    0.00000194
   73      -16.4307659226      -0.0000000001     0.999917    0.00000180
   74      -16.4307659227      -0.0000000001     0.999917    0.00000168
   75      -16.4307659227      -0.0000000001     0.999917    0.00000157
   76      -16.4307659228      -0.0000000001     0.999917    0.00000146
   77      -16.4307659228      -0.0000000001     0.999917    0.00000136
   78      -16.4307659229      -0.0000000000     0.999917    0.00000126
   79      -16.4307659229      -0.0000000000     0.999917    0.00000118
   80      -16.4307659230      -0.0000000000     0.999917    0.00000110
   81      -16.4307659230      -0.0000000000     0.999917    0.00000102
   82      -16.4307659230      -0.0000000000     0.999917    0.00000095
  
--------------------------------------------------
 Final SA-REKS(2,2) energy:     -16.43076592
  
 State     Energy      FON(1)    FON(2)   Spin
  PPS  -16.50006422   1.999834  0.000166  0.00
  OSS  -16.36146763   1.000000  1.000000  0.00
 Trip  -16.41286024   1.000000  1.000000  1.00
--------------------------------------------------

 Lagrangian Wab:   0.01213332  0.01213384

--------------------------------------------------
 SSR: 2SI-2SA-REKS(2,2) Hamiltonian matrix
               PPS           OSS
   PPS   -16.50006422    0.01700190
   OSS     0.01700190  -16.36146763
--------------------------------------------------

----------------------------------------------------------------
 SSR: 2SI-2SA-REKS(2,2) states
                    E_n       C_{PPS}    C_{OSS}
 SSR state  1  -16.50211940  -0.992773   0.120006
 SSR state  2  -16.35941245  -0.120006  -0.992773
----------------------------------------------------------------

 unrelaxed SSR FONs for S0:  1.985435  0.014565

Total Energy:                      -16.5021193979 H         -449.0455 eV
Extrapolated to 0:                 -16.5021193979 H         -449.0455 eV

----------------------------------------------------------------------------------
 Solving CP-REKS equation for  1 state vector...
----------------------------------------------------------------------------------
  CG solver: Constructing Y initial guess
  CG solver: Iteration    1    eps =    0.002361321352
  CG solver: Iteration    2    eps =    0.000845387657
  CG solver: Iteration    3    eps =    0.000078887841
  CG solver: Iteration    4    eps =    0.000051520560
  CG solver: Iteration    5    eps =    0.000002397134
  CG solver: Iteration    6    eps =    0.000000951795
  CG solver: Iteration    7    eps =    0.000000127037
  CG solver: Iteration    8    eps =    0.000000041571
  CG solver: Iteration    9    eps =    0.000000025428
  CG solver: Iteration   10    eps =    0.000000004430
  Convergence reached in CG solver after   10 iterations
  CG solver: Calculating converged R, Z, Q2 matrix
----------------------------------------------------------------------------------

----------------------------------------------------------------------------------
 Solving CP-REKS equation for SI between  1 and  2 state vectors...
----------------------------------------------------------------------------------
  CG solver: Constructing Y initial guess
  CG solver: Iteration    1    eps =    0.061734131136
  CG solver: Iteration    2    eps =    0.008440957284
  CG solver: Iteration    3    eps =    0.003261738338
  CG solver: Iteration    4    eps =    0.000275075256
  CG solver: Iteration    5    eps =    0.000075324895
  CG solver: Iteration    6    eps =    0.000027137352
  CG solver: Iteration    7    eps =    0.000009420609
  CG solver: Iteration    8    eps =    0.000003203366
  CG solver: Iteration    9    eps =    0.000001159693
  CG solver: Iteration   10    eps =    0.000000053829
  CG solver: Iteration   11    eps =    0.000000007220
  Convergence reached in CG solver after   11 iterations
  CG solver: Calculating converged R, Z, Q2 matrix
----------------------------------------------------------------------------------

--------------------------------------------------
 Gradient Information
--------------------------------------------------
           1 st state (SSR)
     0.03667312     0.03050905     0.00417405
     0.05709872    -0.02199679    -0.02164646
    -0.01735435     0.01278868     0.00843066
    -0.01702360    -0.00189909     0.00572330
     0.01396611     0.00238390     0.00139490
    -0.11136145    -0.02526504     0.01739722
     0.01267774    -0.08852720    -0.00660221
     0.01686636     0.00876920    -0.01374147
    -0.00676951     0.02516809     0.01164371
     0.07555714     0.11020900    -0.04143881
    -0.00790241    -0.02852759     0.01136487
    -0.05954264    -0.01828892     0.03236619
    -0.00435239    -0.02130681    -0.02352849
     0.01146716     0.01598351     0.01446254

           2 st state (SSR)
     0.05050121     0.07474273     0.02331644
     0.01133190    -0.08751935    -0.04376981
    -0.01750138     0.01280884     0.01049036
    -0.01647250    -0.00085499     0.00433068
     0.01479996     0.00307390     0.00092571
     0.01279901    -0.00724169    -0.02168178
    -0.09100094    -0.08166942     0.01522641
     0.01844945     0.00440007    -0.00692701
    -0.00250982     0.02065685     0.01648559
     0.14987219     0.11278568    -0.04694365
    -0.00963365    -0.02471002     0.01062486
    -0.13244948    -0.02082837     0.04814170
    -0.00206677    -0.01920856    -0.02361513
     0.01388083     0.01356432     0.01339563
--------------------------------------------------
 Coupling Information
--------------------------------------------------
 between  1 and  2 states
--------------------------------------------------
 g vector - difference gradient
    -0.00748778    -0.02469691    -0.01254989
     0.03050688     0.04149312     0.01432276
     0.00014419    -0.00036590    -0.00003834
    -0.00027492    -0.00024768     0.00022981
    -0.00006595    -0.00185093     0.00232328
    -0.09699893    -0.00936573     0.02743650
     0.08515027    -0.00284397    -0.01662221
    -0.00188622     0.00256408    -0.00447048
    -0.00291710     0.00418083    -0.00346051
    -0.02476604    -0.00976638    -0.00339251
     0.00001743    -0.00053884    -0.00010582
     0.01977838     0.00161414    -0.00412022
    -0.00039512    -0.00107423     0.00037804
    -0.00080510     0.00089839     0.00006959

 h vector - derivative coupling
    -0.00150272    -0.00784267    -0.01098396
     0.02830648     0.03163004     0.01195476
     0.00027917    -0.00144907     0.00416579
     0.00003588     0.00118142    -0.00198559
     0.00148092    -0.00609635     0.00848495
    -0.13482139    -0.00035376     0.02982558
     0.12950618     0.00279857    -0.02194558
    -0.00436611     0.00128279    -0.00392184
    -0.00295132     0.00757433    -0.00394457
     0.05499821    -0.03440001    -0.02537891
    -0.00356180     0.00581453    -0.00198415
    -0.07237246     0.00125034     0.01630964
     0.00318565     0.00002449     0.00135905
     0.00178332    -0.00141465    -0.00195517

 G vector - GDV
    -0.00691405    -0.02211684    -0.00957119
     0.02288341     0.03276128     0.01106168
     0.00007352    -0.00001008    -0.00102985
    -0.00027555    -0.00052205     0.00069631
    -0.00041692    -0.00034500     0.00023460
    -0.06208023    -0.00901167     0.01953950
     0.05183934    -0.00342889    -0.01091431
    -0.00079154     0.00218457    -0.00340723
    -0.00212984     0.00225562    -0.00242094
    -0.03715753    -0.00128834     0.00275242
     0.00086562    -0.00190879     0.00037001
     0.03645342     0.00126973    -0.00788776
    -0.00114281    -0.00104913     0.00004332
    -0.00120683     0.00120960     0.00053346

 H vector - DCV - non-adiabatic coupling
    -0.02272913    -0.09460985    -0.09570625
     0.24357796     0.28454026     0.10527320
     0.00214063    -0.01047267     0.02828644
    -0.00021486     0.00762665    -0.01312926
     0.00996832    -0.04457940     0.06162378
    -1.07949040    -0.01804544     0.24878961
     1.02353391     0.01429719    -0.17710548
    -0.03286315     0.01301133    -0.03415458
    -0.02495601     0.05852805    -0.03262289
     0.33294053    -0.25041738    -0.17838154
    -0.02421083     0.03867129    -0.01367986
    -0.45950948     0.01120433     0.10411630
     0.02102034    -0.00162694     0.00988028
     0.01079218    -0.00812741    -0.01318976
--------------------------------------------------


--------------------------------------------------------------------------------
DFTB+ running times                          cpu [s]             wall clock [s]
--------------------------------------------------------------------------------
SCC                                    +     0.11  ( 27.6%)      0.12  ( 27.7%)
      Dense to sparse                        0.02  (  5.1%)      0.02  (  4.5%)
      Range separated Hamiltonian            0.01  (  2.5%)      0.01  (  2.1%)
  Density matrix creation                    0.01  (  3.0%)      0.01  (  2.6%)
Post-SCC processing                    +     0.30  ( 71.9%)      0.30  ( 71.2%)
  Force calculation                          0.30  ( 71.9%)      0.30  ( 70.9%)
--------------------------------------------------------------------------------
Missing                                +     0.00  (  0.4%)      0.01  (  1.2%)
Total                                  =     0.41  (100.0%)      0.42  (100.0%)
--------------------------------------------------------------------------------
