|===============================================================================
|
|  DFTB+ release 20.1
|
|  Copyright (C) 2006 - 2020  DFTB+ developers group
|
|===============================================================================
|
|  When publishing results obtained with DFTB+, please cite the following
|  reference:
|
|  * DFTB+, a software package for efficient approximate density functional
|    theory based atomistic simulations, J. Chem. Phys. 152, 124101 (2020).
|    [doi: 10.1063/1.5143190]
|
|  You should also cite additional publications crediting the parametrization
|  data you use. Please consult the documentation of the SK-files for the
|  references.
|
|===============================================================================

Reading input file 'dftb_in.hsd'
Parser version: 8

--------------------------------------------------------------------------------
Reading SK-files:
Done.


Processed input in HSD format written to 'dftb_pin.hsd'

Starting initialization...
--------------------------------------------------------------------------------
OpenMP threads:              1
Chosen random seed:          508955818
Mode:                        Static calculation
Self consistent charges:     Yes
SCC-tolerance:                 0.100000E-05
Max. scc iterations:                   1000
Shell resolved Hubbard:      No
Spin polarisation:           No
Nr. of up electrons:             6.000000
Nr. of down electrons:           6.000000
Periodic boundaries:         No
Electronic solver:           Relatively robust
Maximal SCC-cycles:                    1000
Initial charges:             Set automatically (system chrg:   0.100E+01)
Included shells:             C:  s, p
                             N:  s, p
                             H:  s
Spin coupling constants:     C   1(s)-1(s):  -0.455900E-01
                             C   1(s)-2(p):  -0.293000E-01
                             C   2(p)-1(s):  -0.293000E-01
                             C   2(p)-2(p):  -0.275500E-01
                             N   1(s)-1(s):  -0.468700E-01
                             N   1(s)-2(p):  -0.317000E-01
                             N   2(p)-1(s):  -0.317000E-01
                             N   2(p)-2(p):  -0.307200E-01
                             H   1(s)-1(s):  -0.792500E-01
Range separated hybrid:      Yes
  Screening parameter omega:   0.300000E+00
  Range separated algorithm:   MatrixBased
Extra options:
                             Mulliken analysis
                             Force calculation
Force type                   original
                             Eigenvector printing


REKS Calcuation:             Yes
SSR(2,2) Calcuation:         Yes
Energy Functional:           (PPS+OSS)/2
Number of Core Orbitals:                  5
Number of Active Orbitals:                2
Number of Basis:                         12
Number of States:                         2
State-Averaging Weight:          0.500000
                                 0.500000
State of Interest:                        1
Initial Guess:               Diagonalize H0 matrix
Newton-Raphson for FON opt:  Yes
NR max. Iterations:                      50
Level Shifting:              Yes
Shift Value:                     0.300000
W Scale Factor:              C  =    3.000000
                             N  =    3.000000
                             H  =    3.000000
Transition Dipole:           No
Gradient of Microstate:      No
CP-REKS Solver:              Preconditioned Conjugate-Gradient
CG max. Iterations:                     100
CG Tolerance:                  0.100000E-07
Memory for A and Hxc:        Direct Updating Without Saving
Non-Adiabatic Coupling:      Yes

--------------------------------------------------------------------------------

***  Geometry step: 0

  iSCC       reks energy        Diff energy         x_a       SCC error   
    1       -6.2591824804       0.0000000000     0.999311    1.18685699
    2       -6.2732557413      -0.0140732608     0.999728    0.10050111
    3       -6.2781165267      -0.0048607854     0.999854    0.04570491
    4       -6.2809044670      -0.0027879403     0.999909    0.02172570
    5       -6.2827424548      -0.0018379878     0.999936    0.01207265
    6       -6.2839971357      -0.0012546808     0.999950    0.01117526
    7       -6.2848454945      -0.0008483588     0.999958    0.01030458
    8       -6.2854048411      -0.0005593466     0.999963    0.00900335
    9       -6.2857639524      -0.0003591113     0.999966    0.00761523
   10       -6.2859894429      -0.0002254906     0.999968    0.00630828
   11       -6.2861287505      -0.0001393075     0.999969    0.00515514
   12       -6.2862139152      -0.0000851647     0.999970    0.00417586
   13       -6.2862656857      -0.0000517705     0.999971    0.00336362
   14       -6.2862970967      -0.0000314111     0.999971    0.00269979
   15       -6.2863161721      -0.0000190753     0.999971    0.00216226
   16       -6.2863277889      -0.0000116168     0.999971    0.00172948
   17       -6.2863348921      -0.0000071032     0.999971    0.00138229
   18       -6.2863392559      -0.0000043638     0.999971    0.00110434
   19       -6.2863419499      -0.0000026941     0.999971    0.00088212
   20       -6.2863436213      -0.0000016713     0.999971    0.00070457
   21       -6.2863446628      -0.0000010416     0.999971    0.00056277
   22       -6.2863453147      -0.0000006518     0.999971    0.00044954
   23       -6.2863457241      -0.0000004095     0.999971    0.00035912
   24       -6.2863459822      -0.0000002580     0.999971    0.00028692
   25       -6.2863461452      -0.0000001631     0.999971    0.00022926
   26       -6.2863462485      -0.0000001033     0.999971    0.00018320
   27       -6.2863463141      -0.0000000655     0.999971    0.00014642
   28       -6.2863463557      -0.0000000417     0.999971    0.00011703
   29       -6.2863463822      -0.0000000265     0.999971    0.00009355
   30       -6.2863463992      -0.0000000169     0.999971    0.00007479
   31       -6.2863464099      -0.0000000108     0.999971    0.00005979
   32       -6.2863464168      -0.0000000069     0.999971    0.00004781
   33       -6.2863464212      -0.0000000044     0.999971    0.00003823
   34       -6.2863464240      -0.0000000028     0.999971    0.00003057
   35       -6.2863464258      -0.0000000018     0.999971    0.00002445
   36       -6.2863464270      -0.0000000011     0.999971    0.00001955
   37       -6.2863464277      -0.0000000007     0.999971    0.00001567
   38       -6.2863464282      -0.0000000005     0.999971    0.00001256
   39       -6.2863464285      -0.0000000003     0.999971    0.00001007
   40       -6.2863464287      -0.0000000002     0.999971    0.00000807
   41       -6.2863464288      -0.0000000001     0.999971    0.00000646
   42       -6.2863464289      -0.0000000001     0.999971    0.00000518
   43       -6.2863464289      -0.0000000001     0.999971    0.00000415
   44       -6.2863464289      -0.0000000000     0.999971    0.00000332
   45       -6.2863464290      -0.0000000000     0.999971    0.00000266
   46       -6.2863464290      -0.0000000000     0.999971    0.00000213
   47       -6.2863464290      -0.0000000000     0.999971    0.00000171
   48       -6.2863464290      -0.0000000000     0.999971    0.00000137
   49       -6.2863464290      -0.0000000000     0.999971    0.00000109
   50       -6.2863464290      -0.0000000000     0.999971    0.00000088
  
--------------------------------------------------
 Final SA-REKS(2,2) energy:      -6.28634643
  
 State     Energy      FON(1)    FON(2)   Spin
  PPS   -6.41720244   1.999942  0.000058  0.00
  OSS   -6.15549042   1.000000  1.000000  0.00
 Trip   -6.23437417   1.000000  1.000000  1.00
--------------------------------------------------

 Lagrangian Wab:   0.00267700  0.00267690

--------------------------------------------------
 SSR: 2SI-2SA-REKS(2,2) Hamiltonian matrix
               PPS           OSS
   PPS    -6.41720244    0.00376536
   OSS     0.00376536   -6.15549042
--------------------------------------------------

----------------------------------------------------------------
 SSR: 2SI-2SA-REKS(2,2) states
                    E_n       C_{PPS}    C_{OSS}
 SSR state  1   -6.41725660  -0.999897   0.014383
 SSR state  2   -6.15543626  -0.014383  -0.999897
----------------------------------------------------------------

 unrelaxed SSR FONs for S0:  1.999735  0.000265

Total Energy:                       -6.4172565988 H         -174.6224 eV
Extrapolated to 0:                  -6.4172565988 H         -174.6224 eV

----------------------------------------------------------------------------------
 Solving CP-REKS equation for  1 state vector...
----------------------------------------------------------------------------------
  CG solver: Constructing Y initial guess
  CG solver: Iteration    1    eps =    0.000047128388
  CG solver: Iteration    2    eps =    0.000008179041
  CG solver: Iteration    3    eps =    0.000000319690
  CG solver: Iteration    4    eps =    0.000000055315
  CG solver: Iteration    5    eps =    0.000000004436
  Convergence reached in CG solver after    5 iterations
  CG solver: Calculating converged R, Z, Q2 matrix
----------------------------------------------------------------------------------

----------------------------------------------------------------------------------
 Solving CP-REKS equation for SI between  1 and  2 state vectors...
----------------------------------------------------------------------------------
  CG solver: Constructing Y initial guess
  CG solver: Iteration    1    eps =    0.000726133104
  CG solver: Iteration    2    eps =    0.000568029663
  CG solver: Iteration    3    eps =    0.000161857663
  CG solver: Iteration    4    eps =    0.000002003325
  CG solver: Iteration    5    eps =    0.000000271505
  CG solver: Iteration    6    eps =    0.000000004927
  Convergence reached in CG solver after    6 iterations
  CG solver: Calculating converged R, Z, Q2 matrix
----------------------------------------------------------------------------------

--------------------------------------------------
 Gradient Information
--------------------------------------------------
           1 st state (SSR)
     0.00098401     0.00081141     0.00005594
    -0.00205071    -0.00073022    -0.00143000
    -0.00645990     0.00133097     0.00312338
    -0.00618051     0.00193788    -0.00262563
     0.00772888    -0.00050057    -0.00131892
     0.00597823    -0.00284947     0.00219523

           2 st state (SSR)
    -0.00203337    -0.00426562     0.10527194
     0.00236901     0.00424502    -0.12472612
     0.00317252    -0.01583907     0.02000769
     0.00683531     0.00735559    -0.01089497
    -0.00700177    -0.00415651    -0.01019250
    -0.00334170     0.01266059     0.02053395
--------------------------------------------------
 Coupling Information
--------------------------------------------------
 between  1 and  2 states
--------------------------------------------------
 g vector - difference gradient
     0.00150580     0.00253185    -0.05272138
    -0.00221275    -0.00247229     0.06172427
    -0.00501206     0.00863224    -0.00844000
    -0.00671769    -0.00265051     0.00415442
     0.00757667     0.00175466     0.00445028
     0.00486004    -0.00779595    -0.00916758

 h vector - derivative coupling
    -0.00012209    -0.00026825    -0.00318357
    -0.00006884     0.00056861     0.00176168
    -0.00673684     0.00151760     0.00019626
    -0.00719697     0.00206651     0.00062691
     0.00723880    -0.00257393     0.00040500
     0.00688594    -0.00131055     0.00019372

 G vector - GDV
     0.00150869     0.00253851    -0.05260800
    -0.00220986    -0.00248762     0.06164806
    -0.00481621     0.00858502    -0.00844216
    -0.00650791    -0.00270886     0.00413467
     0.00736533     0.00182797     0.00443679
     0.00465997    -0.00775503    -0.00916936

 H vector - DCV - non-adiabatic coupling
    -0.00030071    -0.00074597    -0.01794619
    -0.00050592     0.00189927     0.01350669
    -0.02627074     0.00674226    -0.00017791
    -0.02821480     0.00759840     0.00284984
     0.02846889    -0.00963405     0.00203511
     0.02682328    -0.00585990    -0.00026754
--------------------------------------------------


--------------------------------------------------------------------------------
DFTB+ running times                          cpu [s]             wall clock [s]
--------------------------------------------------------------------------------
SCC                                    +     0.02  ( 66.0%)      0.02  ( 58.6%)
--------------------------------------------------------------------------------
Missing                                +     0.01  ( 34.0%)      0.01  ( 41.4%)
Total                                  =     0.02  (100.0%)      0.03  (100.0%)
--------------------------------------------------------------------------------
