     6
  Step:   120            Position(A)                                  Velocity(au)
C        -0.03752958     0.01974715    -0.10318076     0.00002051    -0.00007772     0.00065462
N        -0.06061673    -0.09709636     1.40943443    -0.00008646     0.00005602    -0.00055541
H         0.83353056     0.53376382    -0.57247273    -0.00092179     0.00171099     0.00056877
H         0.79266074    -0.40941781     1.94275907    -0.00043865    -0.00145164    -0.00015052
H        -0.63710168     0.62810384     1.89190662     0.00172396     0.00124901    -0.00072420
H        -0.91245886    -0.30825252    -0.72663617     0.00059354    -0.00136071     0.00022368
