    14
  Step:     0            Position(A)                                  Velocity(au)
C        -6.02691711    -0.80050045    -0.17345289    -0.00005413     0.00001928     0.00019337
C        -4.71204425    -0.70364428     0.12531345     0.00033005     0.00034986    -0.00002267
H        -6.63582251     0.06912409    -0.56149918    -0.00087936    -0.00106992     0.00005863
H        -6.50031410    -1.81193054    -0.12344366     0.00014862    -0.00065316    -0.00114469
H        -4.25318522    -1.63670053     0.45688283    -0.00084585     0.00055239     0.00028497
C        -3.96368822     0.47495517     0.07431197    -0.00029462    -0.00019109    -0.00013368
C        -2.54888078     0.47623172     0.20170366    -0.00006942    -0.00022632    -0.00014232
H        -4.51589352     1.41615616    -0.17668933    -0.00088868    -0.00081489     0.00079300
H        -2.10077894    -0.44283763     0.62534244    -0.00063357     0.00034827    -0.00019012
C        -1.81878522     1.67462199    -0.05059992     0.00041298     0.00027886     0.00009011
H        -2.37482211     2.57135173    -0.43591843     0.00059114    -0.00056449    -0.00023998
N        -0.46213683     1.81516909     0.17170492    -0.00010409    -0.00010859    -0.00000210
H        -0.03374307     2.69549597     0.01488818    -0.00011500     0.00061038    -0.00023620
H         0.10617518     1.19017999     0.71570629     0.00019814     0.00035259     0.00088467
    14
  Step:     1            Position(A)                                  Velocity(au)
C        -6.02786085    -0.80030726    -0.17145431    -0.00011762     0.00001405     0.00017203
C        -4.70825575    -0.69987917     0.12514810     0.00035810     0.00033706    -0.00000795
H        -6.64468833     0.05625129    -0.56032409    -0.00074440    -0.00126645     0.00015287
H        -6.49865734    -1.81788798    -0.13594100     0.00016264    -0.00042703    -0.00113501
H        -4.26181316    -1.63053682     0.45984456    -0.00071487     0.00055588     0.00026075
C        -3.96724385     0.47294168     0.07276683    -0.00035335    -0.00017594    -0.00014846
C        -2.54926883     0.47393055     0.20021011    -0.00000104    -0.00019004    -0.00013196
H        -4.52488282     1.40655295    -0.16768109    -0.00075807    -0.00092206     0.00084705
H        -2.10751781    -0.43829409     0.62292196    -0.00058563     0.00045916    -0.00024079
C        -1.81427837     1.67755724    -0.04958707     0.00040867     0.00025311     0.00009583
H        -2.36747740     2.56418388    -0.43820377     0.00074063    -0.00072396    -0.00018545
N        -0.46341441     1.81395163     0.17165454    -0.00012566    -0.00011129    -0.00000655
H        -0.03450734     2.70349004     0.01205117    -0.00004355     0.00080586    -0.00027419
H         0.10830481     1.19326675     0.72559758     0.00017707     0.00022611     0.00091019
    14
  Step:     2            Position(A)                                  Velocity(au)
C        -6.02949027    -0.80019307    -0.16968933    -0.00017856     0.00000484     0.00015103
C        -4.70421011    -0.69627034     0.12513962     0.00037704     0.00032137     0.00000593
H        -6.65210765     0.04141808    -0.55815491    -0.00062038    -0.00142133     0.00023706
H        -6.49675612    -1.82127263    -0.14827420     0.00019010    -0.00019019    -0.00111453
H        -4.26882427    -1.62453956     0.46258724    -0.00055184     0.00052277     0.00024453
C        -3.97141841     0.47110613     0.07106410    -0.00040726    -0.00015915    -0.00016236
C        -2.54890348     0.47207420     0.19881683     0.00006786    -0.00014497    -0.00012409
H        -4.53247779     1.39598436    -0.15815841    -0.00063818    -0.00098580     0.00088569
H        -2.11359079    -0.43279268     0.62007460    -0.00051055     0.00052008    -0.00026613
C        -1.80984484     1.68015917    -0.04850355     0.00039997     0.00021773     0.00010317
H        -2.35861935     2.55551369    -0.43997543     0.00086354    -0.00083344    -0.00014899
N        -0.46488585     1.81273447     0.17156168    -0.00013914    -0.00010826    -0.00000975
H        -0.03469577     2.71312562     0.00888973    -0.00001225     0.00090380    -0.00029410
H         0.11004886     1.19512658     0.73561846     0.00012626     0.00013063     0.00090587
    14
  Step:     3            Position(A)                                  Velocity(au)
C        -6.03176722    -0.80020133    -0.16815035    -0.00023517    -0.00000829     0.00013107
C        -4.70000728    -0.69284859     0.12527773     0.00038699     0.00030280     0.00001886
H        -6.65826039     0.02515698    -0.55513790    -0.00051826    -0.00152107     0.00030474
H        -6.49449851    -1.82204874    -0.16032344     0.00022453     0.00004231    -0.00108329
H        -4.27388581    -1.61910021     0.46519419    -0.00036100     0.00045649     0.00023486
C        -3.97615337     0.46946005     0.06921485    -0.00045509    -0.00014179    -0.00017512
C        -2.54778416     0.47075897     0.19749532     0.00013613    -0.00009144    -0.00011884
H        -4.53884427     1.38498677    -0.14830490    -0.00053755    -0.00099576     0.00090640
H        -2.11868711    -0.42691637     0.61709987    -0.00040690     0.00052653    -0.00026327
C        -1.80552834     1.68232055    -0.04732996     0.00038773     0.00017267     0.00011237
H        -2.34858573     2.54595071    -0.44146331     0.00095196    -0.00088278    -0.00013607
N        -0.46645840     1.81158328     0.17144116    -0.00014416    -0.00009933    -0.00001153
H        -0.03477532     2.72326234     0.00561720    -0.00002282     0.00089805    -0.00029443
H         0.11106692     1.19612452     0.74541518     0.00004495     0.00006870     0.00086868
    14
  Step:     4            Position(A)                                  Velocity(au)
C        -6.03463503    -0.80037442    -0.16682188    -0.00028579    -0.00002518     0.00011288
C        -4.69574404    -0.68964608     0.12555232     0.00038827     0.00028099     0.00003096
H        -6.66344557     0.00814169    -0.55148825    -0.00044850    -0.00155376     0.00034999
H        -6.49184402    -1.82034711    -0.17197329     0.00025942     0.00025522    -0.00104203
H        -4.27672194    -1.61455298     0.46772517    -0.00014843     0.00036399     0.00022897
C        -3.98137441     0.46800423     0.06723292    -0.00049517    -0.00012461    -0.00018651
C        -2.54592548     0.47007380     0.19621690     0.00020211    -0.00003051    -0.00011610
H        -4.54423764     1.37420021    -0.13832919    -0.00046346    -0.00094412     0.00090728
H        -2.12249260    -0.42127372     0.61431498    -0.00027574     0.00047887    -0.00023223
C        -1.80136261     1.68393655    -0.04604524     0.00037283     0.00011850     0.00012345
H        -2.33779337     2.53620126    -0.44295223     0.00100005    -0.00086546    -0.00015073
N        -0.46803961     1.81056151     0.17130944    -0.00014105    -0.00008500    -0.00001178
H        -0.03519509     2.73277216     0.00244841    -0.00007107     0.00079558    -0.00027616
H         0.11103228     1.19662943     0.75462260    -0.00006381     0.00003879     0.00079950
    14
  Step:     5            Position(A)                                  Velocity(au)
C        -6.03801947    -0.80075214    -0.16568087    -0.00032887    -0.00004544     0.00009710
C        -4.69151320    -0.68670133     0.12595508     0.00038120     0.00025520     0.00004244
H        -6.66807221    -0.00883445    -0.54748126    -0.00041991    -0.00151048     0.00036822
H        -6.48882329    -1.81646526    -0.18311980     0.00028831     0.00043354    -0.00099209
H        -4.27713310    -1.61113718     0.47020346     0.00007825     0.00025524     0.00022310
C        -3.98698609     0.46673399     0.06513455    -0.00052547    -0.00010783    -0.00019634
C        -2.54336268     0.47009161     0.19495542     0.00026381     0.00003597    -0.00011549
H        -4.54898340     1.36433226    -0.12845645    -0.00042095    -0.00082708     0.00088741
H        -2.12471954    -0.41644008     0.61201944    -0.00012105     0.00038339    -0.00017637
C        -1.79737204     1.68491293    -0.04462922     0.00035602     0.00005659     0.00013619
H        -2.32670768     2.52701708    -0.44476082     0.00100531    -0.00078047    -0.00019470
N        -0.46954405     1.80972370     0.17118352    -0.00013064    -0.00006628    -0.00001049
H        -0.03633009     2.74066728    -0.00042426    -0.00014865     0.00061300    -0.00024206
H         0.10967085     1.19697322     0.76290579    -0.00019388     0.00003616     0.00070262
    14
  Step:     6            Position(A)                                  Velocity(au)
C        -6.04182960    -0.80136848    -0.16469774    -0.00036299    -0.00006834     0.00008422
C        -4.68740458    -0.68406308     0.12648071     0.00036600     0.00022439     0.00005357
H        -6.67263195    -0.02490286    -0.54343276    -0.00043790    -0.00138728     0.00035707
H        -6.48553679    -1.81086262    -0.19367707     0.00030501     0.00056298    -0.00093530
H        -4.27501003    -1.60896906     0.47260589     0.00031052     0.00014205     0.00021286
C        -3.99287003     0.46564530     0.06293766    -0.00054409    -0.00009107    -0.00020451
C        -2.54015406     0.47086068     0.19369032     0.00031931     0.00010547    -0.00011638
H        -4.55344669     1.35610633    -0.11891534    -0.00041168    -0.00064628     0.00084730
H        -2.12514070    -0.41288629     0.61045656     0.00005019     0.00025268    -0.00010242
C        -1.79357405     1.68517454    -0.04306592     0.00033772    -0.00001099     0.00015003
H        -2.31580035     2.51912707    -0.44721169     0.00096963    -0.00063376    -0.00026643
N        -0.47089765     1.80911158     0.17107998    -0.00011411    -0.00004441    -0.00000776
H        -0.03844703     2.74618271    -0.00284704    -0.00024488     0.00037280    -0.00019609
H         0.10679078     1.19742042     0.76999377    -0.00033679     0.00005369     0.00058507
    14
  Step:     7            Position(A)                                  Velocity(au)
C        -6.04596063    -0.80224711    -0.16383840    -0.00038720    -0.00009268     0.00007452
C        -4.68350630    -0.68179244     0.12712695     0.00034284     0.00018749     0.00006461
H        -6.67765206    -0.03918394    -0.53966967    -0.00050250    -0.00118724     0.00031742
H        -6.48215068    -1.80414894    -0.20358137     0.00030390     0.00063091    -0.00087384
H        -4.27033983    -1.60802960     0.47486017     0.00053965     0.00003651     0.00019392
C        -3.99888908     0.46474167     0.06066043    -0.00054977    -0.00007339    -0.00021109
C        -2.53637720     0.47239902     0.19240930     0.00036715     0.00017511    -0.00011794
H        -4.55798972     1.35019362    -0.10992019    -0.00043301    -0.00041020     0.00078915
H        -2.12362156    -0.41091221     0.60977891     0.00022849     0.00010452    -0.00001961
C        -1.78998377     1.68467256    -0.04134694     0.00031794    -0.00008155     0.00016414
H        -2.30549513     2.51315238    -0.45058939     0.00089990    -0.00043911    -0.00036035
N        -0.47204035     1.80875204     0.17101378    -0.00009282    -0.00002082    -0.00000377
H        -0.04168727     2.74882293    -0.00471411    -0.00034800     0.00010065    -0.00014288
H         0.10230292     1.19814780     0.77570531    -0.00048265     0.00008285     0.00045577
    14
  Step:     8            Position(A)                                  Velocity(au)
C        -6.05030036    -0.80339596    -0.16306756    -0.00040124    -0.00011682     0.00006790
C        -4.67990423    -0.67996132     0.12789411     0.00031203     0.00014375     0.00007575
H        -6.68362515    -0.05087597    -0.53648853    -0.00060681    -0.00092191     0.00025422
H        -6.47888837    -1.79706035    -0.21279395     0.00028054     0.00062782    -0.00081003
H        -4.26320406    -1.60817042     0.47684833     0.00075743    -0.00005060     0.00016259
C        -4.00489726     0.46403977     0.05831967    -0.00054225    -0.00005342    -0.00021626
C        -2.53212185     0.47469163     0.19111016     0.00040658     0.00024189    -0.00011920
H        -4.56291951     1.34713251    -0.10165124    -0.00047761    -0.00013443     0.00071675
H        -2.12014197    -0.41059966     0.61002748     0.00040315    -0.00004052     0.00006163
C        -1.78661841     1.68339053    -0.03947501     0.00029639    -0.00015195     0.00017738
H        -2.29611328     2.50952071    -0.45509512     0.00080732    -0.00021714    -0.00046715
N        -0.47292818     1.80865619     0.17099739    -0.00006832     0.00000307     0.00000121
H        -0.04606013     2.74838468    -0.00597287    -0.00044595    -0.00017636    -0.00008743
H         0.09623187     1.19923297     0.77996456    -0.00062092     0.00011437     0.00032471
    14
  Step:     9            Position(A)                                  Velocity(au)
C        -6.05473853    -0.80480275    -0.16235299    -0.00040575    -0.00013884     0.00006390
C        -4.67667995    -0.67864770     0.12878419     0.00027412     0.00009292     0.00008710
H        -6.69092719    -0.05935256    -0.53410801    -0.00073676    -0.00061121     0.00017649
H        -6.47601333    -1.79041416    -0.22130222     0.00023236     0.00054923    -0.00074620
H        -4.25376951    -1.60913655     0.47841705     0.00095671    -0.00011109     0.00011628
C        -4.01075175     0.46357301     0.05592941    -0.00052233    -0.00002963    -0.00022030
C        -2.52748243     0.47769076     0.18980147     0.00043740     0.00030293    -0.00011923
H        -4.56843841     1.34725273    -0.09423991    -0.00053429     0.00015956     0.00063490
H        -2.11480198    -0.41179856     0.61112707     0.00056370    -0.00016228     0.00013129
C        -1.78349964     1.68134833    -0.03746644     0.00027266    -0.00021882     0.00018845
H        -2.28783336     2.50840200    -0.46080917     0.00070563     0.00000737    -0.00057482
N        -0.47353498     1.80881918     0.17104016    -0.00004229     0.00002577     0.00000689
H        -0.05144322     2.74496481    -0.00662683    -0.00052682    -0.00043088    -0.00003490
H         0.08871910     1.20064995     0.78280902    -0.00074118     0.00013897     0.00020217
    14
  Step:    10            Position(A)                                  Velocity(au)
C        -6.05917688    -0.80643325    -0.16166952    -0.00040221    -0.00015685     0.00006176
C        -4.67390742    -0.67792854     0.12979963     0.00022991     0.00003545     0.00009863
H        -6.69974314    -0.06424744    -0.53262749    -0.00087270    -0.00028123     0.00009618
H        -6.47380511    -1.78504482    -0.22911840     0.00015938     0.00039754    -0.00068435
H        -4.24227420    -1.61060082     0.47939223     0.00113175    -0.00014020     0.00005387
C        -4.01632430     0.46339151     0.05350029    -0.00049171    -0.00000065    -0.00022351
C        -2.52255293     0.48131890     0.18850170     0.00045974     0.00035577    -0.00011721
H        -4.57460819     1.35062312    -0.08776152    -0.00058965     0.00044721     0.00054865
H        -2.10780995    -0.41414992     0.61289971     0.00070142    -0.00024417     0.00018127
C        -1.78065355     1.67860346    -0.03535233     0.00024648    -0.00027881     0.00019604
H        -2.28067635     2.50968193    -0.46767036     0.00060852     0.00020938    -0.00067059
N        -0.47385335     1.80922000     0.17114813    -0.00001644     0.00004583     0.00001299
H        -0.05758531     2.73895833    -0.00673637    -0.00057928    -0.00063635     0.00000960
H         0.08001711     1.20227320     0.78438737    -0.00083392     0.00014805     0.00009785
    14
  Step:    11            Position(A)                                  Velocity(au)
C        -6.06353773    -0.80823423    -0.16100194    -0.00039275    -0.00016951     0.00006050
C        -4.67165015    -0.67787207     0.13094192     0.00018051    -0.00002751     0.00011019
H        -6.71001910    -0.06550508    -0.53200389    -0.00099269     0.00003969     0.00002623
H        -6.47252656    -1.78171724    -0.23627369     0.00006485     0.00018356    -0.00062583
H        -4.22901023    -1.61220361     0.47959545     0.00127840    -0.00013663    -0.00002434
C        -4.02150886     0.46355885     0.05103972    -0.00045260     0.00003445    -0.00022615
C        -2.51742472     0.48547396     0.18723726     0.00047386     0.00039845    -0.00011253
H        -4.58133808     1.35703638    -0.08223725    -0.00063042     0.00070457     0.00046245
H        -2.09945704    -0.41714030     0.61509266     0.00081027    -0.00027535     0.00020630
C        -1.77810742     1.67524887    -0.03317774     0.00021796    -0.00032893     0.00019899
H        -2.27452084     2.51298269    -0.47547971     0.00052723     0.00036760    -0.00074308
N        -0.47389466     1.80982178     0.17132430     0.00000759     0.00006185     0.00001925
H        -0.06411616     2.73104340    -0.00641678    -0.00059330    -0.00076859     0.00004133
H         0.07047546     1.20388878     0.78494967    -0.00089134     0.00013448     0.00002006
    14
  Step:    12            Position(A)                                  Velocity(au)
C        -6.06776905    -0.81014167    -0.16034598    -0.00037973    -0.00017636     0.00005918
C        -4.66995833    -0.67853045     0.13221034     0.00012723    -0.00009420     0.00012154
H        -6.72146008    -0.06337904    -0.53205364    -0.00107665     0.00032570    -0.00002182
H        -6.47238635    -1.78102910    -0.24280966    -0.00004476    -0.00007342    -0.00057102
H        -4.21430685    -1.61358993     0.47885981     0.00139404    -0.00010228    -0.00011670
C        -4.02622586     0.46414513     0.04855278    -0.00040745     0.00007581    -0.00022837
C        -2.51218633     0.49003576     0.18603987     0.00047995     0.00042961    -0.00010485
H        -4.58839994     1.36603689    -0.07764464    -0.00064577     0.00091178     0.00037966
H        -2.09008371    -0.42017371     0.61741295     0.00088728    -0.00025155     0.00020430
C        -1.77588524     1.67140744    -0.03099904     0.00018764    -0.00036680     0.00019645
H        -2.26914210     2.51772389    -0.48392669     0.00046884     0.00046741    -0.00078402
N        -0.47368724     1.81057306     0.17156933     0.00002845     0.00007264     0.00002552
H        -0.07056483     2.72214393    -0.00583209    -0.00056123    -0.00080841     0.00005642
H         0.06051730     1.20521521     0.78482631    -0.00090820     0.00009345    -0.00002524
    14
  Step:    13            Position(A)                                  Velocity(au)
C        -6.07184497    -0.81209244    -0.15970725    -0.00036537    -0.00017800     0.00005702
C        -4.66886675    -0.67993290     0.13360083     0.00007151    -0.00016231     0.00013232
H        -6.73357289    -0.05837980    -0.53248114    -0.00110977     0.00055712    -0.00003976
H        -6.47350587    -1.78332345    -0.24876592    -0.00016054    -0.00034758    -0.00051923
H        -4.19851294    -1.61444126     0.47704239     0.00147756    -0.00004159    -0.00022059
C        -4.03042255     0.46521739     0.04604372    -0.00035862     0.00012272    -0.00023018
C        -2.50692482     0.49487252     0.18494355     0.00047811     0.00044847    -0.00009406
H        -4.59546554     1.37698320    -0.07393147    -0.00062873     0.00105559     0.00030236
H        -2.08004615    -0.42264347     0.61956214     0.00093222    -0.00017451     0.00017605
C        -1.77400245     1.66722432    -0.02887993     0.00015649    -0.00039078     0.00018796
H        -2.26426400     2.52320815    -0.49263161     0.00043575     0.00050216    -0.00078918
N        -0.47327229     1.81141097     0.17188267     0.00004524     0.00007743     0.00003174
H        -0.07639421     2.71335793    -0.00518258    -0.00047946    -0.00074534     0.00005258
H         0.05060675     1.20593309     0.78439752    -0.00088262     0.00002332    -0.00003545
    14
  Step:    14            Position(A)                                  Velocity(au)
C        -6.07576222    -0.81403579    -0.15909862    -0.00035146    -0.00017595     0.00005349
C        -4.66839394    -0.68208128     0.13510507     0.00001483    -0.00022923     0.00014212
H        -6.74573839    -0.05119106    -0.53292353    -0.00108427     0.00072239    -0.00002368
H        -6.47589845    -1.78863301    -0.25416873    -0.00027248    -0.00061019    -0.00046885
H        -4.18198249    -1.61449973     0.47403388     0.00152906     0.00003919    -0.00033269
C        -4.03407128     0.46682988     0.04351722    -0.00030826     0.00017362    -0.00023148
C        -2.50172667     0.49984700     0.18398218     0.00046836     0.00045479    -0.00008027
H        -4.60215451     1.38913000    -0.07102987    -0.00057671     0.00113031     0.00023146
H        -2.06968953    -0.42399144     0.62126445     0.00094708    -0.00005075     0.00012462
C        -1.77246182     1.66285837    -0.02688708     0.00012576    -0.00039995     0.00017341
H        -2.25960920     2.52870955    -0.50119162     0.00042637     0.00047251    -0.00075827
N        -0.47269757     1.81226707     0.17226365     0.00005774     0.00007609     0.00003794
H        -0.08105384     2.70583824    -0.00468182    -0.00034988    -0.00058156     0.00003003
H         0.04120832     1.20572549     0.78405079    -0.00081655    -0.00007357    -0.00001210
    14
  Step:    15            Position(A)                                  Velocity(au)
C        -6.07953377    -0.81594159    -0.15853703    -0.00033913    -0.00017222     0.00004838
C        -4.66854242    -0.68494780     0.13670995    -0.00004142    -0.00029227     0.00015049
H        -6.75729335    -0.04257606    -0.53299915    -0.00099945     0.00081805     0.00002628
H        -6.47946698    -1.79667247    -0.25902298    -0.00037128    -0.00083417    -0.00041785
H        -4.16506175    -1.61358395     0.46976425     0.00154976     0.00013268    -0.00044928
C        -4.03716623     0.46901572     0.04097959    -0.00025818     0.00022635    -0.00023211
C        -2.49667848     0.50482181     0.18318754     0.00045069     0.00044874    -0.00006374
H        -4.60808213     1.40171089    -0.06886793    -0.00049101     0.00113702     0.00016696
H        -2.05932702    -0.42375370     0.62228850     0.00093537     0.00010982     0.00005467
C        -1.77125124     1.65847457    -0.02508629     0.00009683    -0.00039409     0.00015303
H        -2.25493637     2.53354526    -0.50922029     0.00043627     0.00038491    -0.00069423
N        -0.47200919     1.81307563     0.17271258     0.00006650     0.00006931     0.00004423
H        -0.08404855     2.70063528    -0.00452556    -0.00018101    -0.00033445    -0.00000797
H         0.03274319     1.20432361     0.78413273    -0.00071580    -0.00019081     0.00003893
    14
  Step:    16            Position(A)                                  Velocity(au)
C        -6.08318131    -0.81780337    -0.15804017    -0.00032886    -0.00016888     0.00004174
C        -4.66930002    -0.68847514     0.13839732    -0.00009599    -0.00034883     0.00015698
H        -6.76760331    -0.03329455    -0.53234863    -0.00086024     0.00084713     0.00010675
H        -6.48402083    -1.80688197    -0.26331000    -0.00044976    -0.00099812    -0.00036422
H        -4.14807862    -1.61159703     0.46420502     0.00154172     0.00023109    -0.00056661
C        -4.03971951     0.47178171     0.03843941    -0.00020985     0.00027841    -0.00023183
C        -2.49186698     0.50966409     0.18258770     0.00042513     0.00043096    -0.00004487
H        -4.61289639     1.41400453    -0.06737727    -0.00037588     0.00108217     0.00010841
H        -2.04922648    -0.42158891     0.62246051     0.00090156     0.00029531    -0.00002817
C        -1.77034357     1.65423689    -0.02353932     0.00007099    -0.00037356     0.00012730
H        -2.25006499     2.53713023    -0.51637916     0.00045938     0.00024978    -0.00060232
N        -0.47124280     1.81378340     0.17323136     0.00007281     0.00005861     0.00005080
H        -0.08501388     2.69852159    -0.00485617     0.00001234    -0.00003615    -0.00005512
H         0.02554883     1.20155120     0.78490244    -0.00058946    -0.00031827     0.00010788
    14
  Step:    17            Position(A)                                  Velocity(au)
C        -6.08672821    -0.81963618    -0.15762388    -0.00032051    -0.00016766     0.00003383
C        -4.67064248    -0.69257917     0.14014414    -0.00014793    -0.00039666     0.00016115
H        -6.77611268    -0.02404349    -0.53066388    -0.00067537     0.00081717     0.00021232
H        -6.48930632    -1.81850832    -0.26699100    -0.00050385    -0.00108890    -0.00030650
H        -4.13133359    -1.60852833     0.45736863     0.00150777     0.00032669    -0.00068105
C        -4.04175708     0.47510640     0.03590782    -0.00016435     0.00032724    -0.00023042
C        -2.48737793     0.51424999     0.18220592     0.00039184     0.00040246    -0.00002414
H        -4.61630512     1.42538543    -0.06649635    -0.00023750     0.00097595     0.00005505
H        -2.03960363    -0.41729320     0.62167227     0.00085066     0.00049277    -0.00011774
C        -1.76969828     1.65030222    -0.02230144     0.00004933    -0.00033926     0.00009688
H        -2.24488663     2.53900963    -0.52239727     0.00048903     0.00007982    -0.00048928
N        -0.47041639     1.81435792     0.17382385     0.00007846     0.00004609     0.00005781
H        -0.08377864     2.69984435    -0.00573148     0.00021110     0.00027114    -0.00010296
H         0.01984767     1.19736078     0.78649290    -0.00044870    -0.00044336     0.00018237
    14
  Step:    18            Position(A)                                  Velocity(au)
C        -6.09019315    -0.82147125    -0.15730005    -0.00031347    -0.00016973     0.00002507
C        -4.67253628    -0.69715287     0.14192287    -0.00019653    -0.00043392     0.00016264
H        -6.78237828    -0.01541750    -0.52770374    -0.00045573     0.00073838     0.00033661
H        -6.49504345    -1.83070376    -0.27001522    -0.00053266    -0.00110212    -0.00024401
H        -4.11509337    -1.60445006     0.44930576     0.00145119     0.00041225    -0.00078931
C        -4.04331500     0.47894075     0.03339845    -0.00012244     0.00037048    -0.00022767
C        -2.48329470     0.51846877     0.18205969     0.00035114     0.00036465    -0.00000211
H        -4.61809225     1.43535523    -0.06617297    -0.00008318     0.00083070     0.00000604
H        -2.03061663    -0.41080863     0.61988463     0.00078806     0.00068871    -0.00020765
C        -1.76926444     1.64681495    -0.02141977     0.00003264    -0.00029257     0.00006260
H        -2.23936651     2.53887637    -0.52708302     0.00051860    -0.00011103    -0.00036265
N        -0.46952634     1.81479179     0.17449597     0.00008540     0.00003398     0.00006545
H        -0.08039564     2.70445319    -0.00710869     0.00039533     0.00054318    -0.00014248
H         0.01573257     1.19185179     0.78889216    -0.00030523    -0.00055280     0.00024925
    14
  Step:    19            Position(A)                                  Velocity(au)
C        -6.09358594    -0.82334938    -0.15707540    -0.00030679    -0.00017572     0.00001597
C        -4.67494198    -0.70207190     0.14370221    -0.00024140    -0.00045929     0.00016114
H        -6.78608270    -0.00789005    -0.52329991    -0.00021309     0.00062232     0.00047292
H        -6.50095935    -1.84261920    -0.27232919    -0.00053798    -0.00104091    -0.00017688
H        -4.09958606    -1.59950953     0.44010091     0.00137563     0.00048144    -0.00088858
C        -4.04443569     0.48321130     0.03092718    -0.00008453     0.00040607    -0.00022338
C        -2.47969616     0.52222747     0.18215986     0.00030352     0.00031934     0.00002058
H        -4.61812480     1.44355863    -0.06636411     0.00007934     0.00065990    -0.00003944
H        -2.02236325    -0.40222632     0.61712951     0.00071938     0.00086953    -0.00029138
C        -1.76898416     1.64390159    -0.02093184     0.00002141    -0.00023537     0.00002539
H        -2.23354134     2.53658067    -0.53033100     0.00054174    -0.00030817    -0.00023052
N        -0.46854815     1.81510128     0.17525564     0.00009530     0.00002415     0.00007389
H        -0.07512999     2.71172748    -0.00884853     0.00054789     0.00074237    -0.00016593
H         0.01317009     1.18526714     0.79194579    -0.00016967    -0.00063466     0.00029665
    14
  Step:    20            Position(A)                                  Velocity(au)
C        -6.09690478    -0.82531556    -0.15695071    -0.00029936    -0.00018582     0.00000708
C        -4.67781726    -0.70720078     0.14544805    -0.00028237    -0.00047208     0.00015644
H        -6.78704006    -0.00180311    -0.51735766     0.00004054     0.00048121     0.00061464
H        -6.50681285    -1.85347573    -0.27388478    -0.00052348    -0.00091411    -0.00010592
H        -4.08499880    -1.59391763     0.42986634     0.00128481     0.00052912    -0.00097661
C        -4.04516430     0.48782439     0.02851165    -0.00005074     0.00043240    -0.00021742
C        -2.47665457     0.52545505     0.18250988     0.00024972     0.00026874     0.00004322
H        -4.61635658     1.44979171    -0.06703579     0.00024213     0.00047749    -0.00008222
H        -2.01487876    -0.39178600     0.61351014     0.00065039     0.00102182    -0.00036251
C        -1.76879597     1.64166577    -0.02086431     0.00001581    -0.00016996    -0.00001371
H        -2.22751483     2.53213452    -0.53212604     0.00055259    -0.00049673    -0.00010120
N        -0.46744144     1.81532006     0.17611254     0.00010928     0.00001777     0.00008328