|===============================================================================
|
|  DFTB+ release 20.1
|
|  Copyright (C) 2006 - 2020  DFTB+ developers group
|
|===============================================================================
|
|  When publishing results obtained with DFTB+, please cite the following
|  reference:
|
|  * DFTB+, a software package for efficient approximate density functional
|    theory based atomistic simulations, J. Chem. Phys. 152, 124101 (2020).
|    [doi: 10.1063/1.5143190]
|
|  You should also cite additional publications crediting the parametrization
|  data you use. Please consult the documentation of the SK-files for the
|  references.
|
|===============================================================================

Reading input file 'dftb_in.hsd'
Parser version: 8

--------------------------------------------------------------------------------
Reading SK-files:
Done.


Processed input in HSD format written to 'dftb_pin.hsd'

Starting initialization...
--------------------------------------------------------------------------------
OpenMP threads:              1
Chosen random seed:          510961118
Mode:                        Static calculation
Self consistent charges:     Yes
SCC-tolerance:                 0.100000E-05
Max. scc iterations:                   1000
Shell resolved Hubbard:      No
Spin polarisation:           No
Nr. of up electrons:             6.000000
Nr. of down electrons:           6.000000
Periodic boundaries:         No
Electronic solver:           Relatively robust
Maximal SCC-cycles:                    1000
Initial charges:             Set automatically (system chrg:   0.100E+01)
Included shells:             C:  s, p
                             N:  s, p
                             H:  s
Spin coupling constants:     C   1(s)-1(s):  -0.455900E-01
                             C   1(s)-2(p):  -0.293000E-01
                             C   2(p)-1(s):  -0.293000E-01
                             C   2(p)-2(p):  -0.275500E-01
                             N   1(s)-1(s):  -0.468700E-01
                             N   1(s)-2(p):  -0.317000E-01
                             N   2(p)-1(s):  -0.317000E-01
                             N   2(p)-2(p):  -0.307200E-01
                             H   1(s)-1(s):  -0.792500E-01
Range separated hybrid:      Yes
  Screening parameter omega:   0.300000E+00
  Range separated algorithm:   MatrixBased
Extra options:
                             Mulliken analysis
                             Force calculation
Force type                   original
                             Eigenvector printing


REKS Calcuation:             Yes
SSR(2,2) Calcuation:         Yes
Energy Functional:           (PPS+OSS)/2
Number of Core Orbitals:                  5
Number of Active Orbitals:                2
Number of Basis:                         12
Number of States:                         2
State-Averaging Weight:          0.500000
                                 0.500000
State of Interest:                        1
Initial Guess:               Diagonalize H0 matrix
Newton-Raphson for FON opt:  Yes
NR max. Iterations:                      50
Level Shifting:              Yes
Shift Value:                     0.300000
W Scale Factor:              C  =    3.000000
                             N  =    3.000000
                             H  =    3.000000
Transition Dipole:           No
Gradient of Microstate:      No
CP-REKS Solver:              Preconditioned Conjugate-Gradient
CG max. Iterations:                     100
CG Tolerance:                  0.100000E-07
Memory for A and Hxc:        Direct Updating Without Saving
Non-Adiabatic Coupling:      Yes

--------------------------------------------------------------------------------

***  Geometry step: 0

  iSCC       reks energy        Diff energy         x_a       SCC error   
    1       -6.2632112704       0.0000000000     0.999713    1.19351057
    2       -6.2741566504      -0.0109453800     0.999869    0.08051762
    3       -6.2778834103      -0.0037267599     0.999923    0.03254350
    4       -6.2797852839      -0.0019018736     0.999947    0.01544543
    5       -6.2808292886      -0.0010440047     0.999959    0.00856735
    6       -6.2814102191      -0.0005809305     0.999965    0.00734188
    7       -6.2817323755      -0.0003221564     0.999968    0.00595804
    8       -6.2819098253      -0.0001774497     0.999970    0.00467062
    9       -6.2820070634      -0.0000972381     0.999971    0.00357926
   10       -6.2820602314      -0.0000531680     0.999972    0.00270196
   11       -6.2820893290      -0.0000290976     0.999972    0.00201950
   12       -6.2821053119      -0.0000159829     0.999973    0.00149972
   13       -6.2821141435      -0.0000088315     0.999973    0.00110927
   14       -6.2821190614      -0.0000049179     0.999973    0.00081863
   15       -6.2821218249      -0.0000027635     0.999973    0.00060357
   16       -6.2821233932      -0.0000015683     0.999973    0.00044502
   17       -6.2821242925      -0.0000008992     0.999973    0.00032837
   18       -6.2821248134      -0.0000005209     0.999973    0.00024411
   19       -6.2821251181      -0.0000003048     0.999973    0.00019760
   20       -6.2821252981      -0.0000001800     0.999973    0.00015986
   21       -6.2821254053      -0.0000001072     0.999973    0.00013057
   22       -6.2821254696      -0.0000000643     0.999973    0.00010618
   23       -6.2821255085      -0.0000000389     0.999973    0.00008603
   24       -6.2821255321      -0.0000000236     0.999973    0.00006949
   25       -6.2821255466      -0.0000000144     0.999973    0.00005599
   26       -6.2821255554      -0.0000000089     0.999973    0.00004500
   27       -6.2821255609      -0.0000000055     0.999973    0.00003610
   28       -6.2821255642      -0.0000000034     0.999973    0.00002891
   29       -6.2821255663      -0.0000000021     0.999973    0.00002312
   30       -6.2821255676      -0.0000000013     0.999973    0.00001847
   31       -6.2821255684      -0.0000000008     0.999973    0.00001473
   32       -6.2821255689      -0.0000000005     0.999973    0.00001174
   33       -6.2821255692      -0.0000000003     0.999973    0.00000935
   34       -6.2821255694      -0.0000000002     0.999973    0.00000744
   35       -6.2821255695      -0.0000000001     0.999973    0.00000592
   36       -6.2821255696      -0.0000000001     0.999973    0.00000470
   37       -6.2821255697      -0.0000000000     0.999973    0.00000374
   38       -6.2821255697      -0.0000000000     0.999973    0.00000297
   39       -6.2821255697      -0.0000000000     0.999973    0.00000236
   40       -6.2821255697      -0.0000000000     0.999973    0.00000187
   41       -6.2821255697      -0.0000000000     0.999973    0.00000148
   42       -6.2821255697      -0.0000000000     0.999973    0.00000118
   43       -6.2821255697      -0.0000000000     0.999973    0.00000093
  
--------------------------------------------------
 Final SA-REKS(2,2) energy:      -6.28212557
  
 State     Energy      FON(1)    FON(2)   Spin
  PPS   -6.41188323   1.999946  0.000054  0.00
  OSS   -6.15236791   1.000000  1.000000  0.00
 Trip   -6.23007834   1.000000  1.000000  1.00
--------------------------------------------------

 Lagrangian Wab:   0.00272725  0.00272715

--------------------------------------------------
 SSR: 2SI-2SA-REKS(2,2) Hamiltonian matrix
               PPS           OSS
   PPS    -6.41188323    0.00383681
   OSS     0.00383681   -6.15236791
--------------------------------------------------

----------------------------------------------------------------
 SSR: 2SI-2SA-REKS(2,2) states
                    E_n       C_{PPS}    C_{OSS}
 SSR state  1   -6.41193994  -0.999891   0.014780
 SSR state  2   -6.15231119  -0.014780  -0.999891
----------------------------------------------------------------

 unrelaxed SSR FONs for S0:  1.999727  0.000273

Total Energy:                       -6.4119399450 H         -174.4778 eV
Extrapolated to 0:                  -6.4119399450 H         -174.4778 eV

----------------------------------------------------------------------------------
 Solving CP-REKS equation for  1 state vector...
----------------------------------------------------------------------------------
  CG solver: Constructing Y initial guess
  CG solver: Iteration    1    eps =    0.000044172475
  CG solver: Iteration    2    eps =    0.000008923372
  CG solver: Iteration    3    eps =    0.000000388772
  CG solver: Iteration    4    eps =    0.000000054989
  CG solver: Iteration    5    eps =    0.000000009780
  Convergence reached in CG solver after    5 iterations
  CG solver: Calculating converged R, Z, Q2 matrix
----------------------------------------------------------------------------------

----------------------------------------------------------------------------------
 Solving CP-REKS equation for SI between  1 and  2 state vectors...
----------------------------------------------------------------------------------
  CG solver: Constructing Y initial guess
  CG solver: Iteration    1    eps =    0.000689970848
  CG solver: Iteration    2    eps =    0.000380050016
  CG solver: Iteration    3    eps =    0.000126143979
  CG solver: Iteration    4    eps =    0.000002015921
  CG solver: Iteration    5    eps =    0.000000281623
  CG solver: Iteration    6    eps =    0.000000009575
  Convergence reached in CG solver after    6 iterations
  CG solver: Calculating converged R, Z, Q2 matrix
----------------------------------------------------------------------------------

--------------------------------------------------
 Gradient Information
--------------------------------------------------
           1 st state (SSR)
     0.00460063    -0.01717967     0.03550803
    -0.02554021    -0.00178876    -0.04192832
     0.00711294     0.00277665     0.00826557
     0.01553644     0.00657451     0.00177505
     0.00400525     0.00654981     0.00390354
    -0.00571504     0.00306746    -0.00752388

           2 st state (SSR)
    -0.00743986    -0.00223149     0.14529904
     0.01513468     0.00531400    -0.16910969
    -0.00609151    -0.01724067     0.02278119
    -0.01053291     0.01111938    -0.00593922
     0.00053960    -0.00354060    -0.00534255
     0.00838999     0.00657937     0.01231122
--------------------------------------------------
 Coupling Information
--------------------------------------------------
 between  1 and  2 states
--------------------------------------------------
 g vector - difference gradient
     0.00598067    -0.00736136    -0.05496493
    -0.02047123    -0.00375219     0.06365271
     0.00685448     0.00995814    -0.00727799
     0.01329919    -0.00220750     0.00382898
     0.00155696     0.00512605     0.00467301
    -0.00722007    -0.00176314    -0.00991179

 h vector - derivative coupling
    -0.00142724     0.00392300    -0.00153645
    -0.00422396    -0.00673883     0.00115776
     0.00843365    -0.00185636    -0.00057514
     0.00875308     0.00222951    -0.00100911
    -0.00597315     0.00265970     0.00162148
    -0.00556238    -0.00021702     0.00034146

 G vector - GDV
     0.00602024    -0.00747409    -0.05489550
    -0.02033744    -0.00355138     0.06359069
     0.00660222     0.01000866    -0.00725781
     0.01303467    -0.00227243     0.00385714
     0.00173282     0.00504520     0.00462304
    -0.00705252    -0.00175596    -0.00991755

 H vector - DCV - non-adiabatic coupling
    -0.00481398     0.01426543    -0.01217247
    -0.01859255    -0.02637144     0.01170354
     0.03324963    -0.00601331    -0.00304279
     0.03521307     0.00833224    -0.00344916
    -0.02281922     0.01082333     0.00677463
    -0.02223694    -0.00103625     0.00018625
--------------------------------------------------


--------------------------------------------------------------------------------
DFTB+ running times                          cpu [s]             wall clock [s]
--------------------------------------------------------------------------------
SCC                                    +     0.02  ( 64.9%)      0.02  ( 62.9%)
Post-SCC processing                    +     0.01  ( 31.1%)      0.01  ( 28.6%)
--------------------------------------------------------------------------------
Missing                                +     0.00  (  4.0%)      0.00  (  8.6%)
Total                                  =     0.03  (100.0%)      0.04  (100.0%)
--------------------------------------------------------------------------------
