     6
  Step:     0            Position(A)                                  Velocity(au)
C        -0.03233821     0.02056969     0.03791650    -0.00007941    -0.00007387    -0.00013330
N        -0.03952218    -0.06218089     1.27547769     0.00013160    -0.00006412     0.00005257
H         0.87895262    -0.00662716    -0.52936667     0.00026547     0.00050725    -0.00030985
H         0.77504380    -0.09751723     1.85574576    -0.00157386     0.00042597    -0.00023598
H        -0.94886765     0.02587053     1.89640654    -0.00034197     0.00043998     0.00031447
H        -0.98350885     0.02747406    -0.50704559     0.00076784     0.00039805     0.00108918
     6
  Step:     1            Position(A)                                  Velocity(au)
C        -0.03279103     0.02019134     0.03694066    -0.00008528    -0.00006463    -0.00022225
N        -0.03886678    -0.06254988     1.27602735     0.00010682    -0.00007070     0.00014681
H         0.88075731    -0.00385566    -0.53140768     0.00039137     0.00050671    -0.00043380
H         0.76682024    -0.09520146     1.85474784    -0.00141471     0.00042036    -0.00011556
H        -0.95019211     0.02827238     1.89773292    -0.00014105     0.00043800     0.00016862
H        -0.97947743     0.02962086    -0.50134337     0.00069616     0.00038743     0.00098893
     6
  Step:     2            Position(A)                                  Velocity(au)
C        -0.03327100     0.01986282     0.03548555    -0.00008924    -0.00005570    -0.00030806
N        -0.03835378    -0.06295417     1.27708346     0.00007977    -0.00007703     0.00023725
H         0.88323336    -0.00108477    -0.53411157     0.00050979     0.00050708    -0.00055155
H         0.75956984    -0.09291937     1.85448174    -0.00121982     0.00041388     0.00003043
H        -0.95041044     0.03066134     1.89825094     0.00006070     0.00043546     0.00002031
H        -0.97589427     0.03171169    -0.49622878     0.00060417     0.00037768     0.00087461
     6
  Step:     3            Position(A)                                  Velocity(au)
C        -0.03376705     0.01958215     0.03357132    -0.00009105    -0.00004716    -0.00038959
N        -0.03799432    -0.06339236     1.27862227     0.00005094    -0.00008306     0.00032281
H         0.88633307     0.00169039    -0.53744010     0.00061819     0.00050814    -0.00066143
H         0.75347867    -0.09067473     1.85508064    -0.00099309     0.00040677     0.00019881
H        -0.94952816     0.03303513     1.89795504     0.00025962     0.00043250    -0.00012760
H        -0.97286947     0.03375170    -0.49177745     0.00049232     0.00036879     0.00074660
     6
  Step:     4            Position(A)                                  Velocity(au)
C        -0.03426697     0.01934698     0.03122401    -0.00009053    -0.00003906    -0.00046559
N        -0.03779653    -0.06386278     1.28061455     0.00002097    -0.00008873     0.00040235
H         0.88999547     0.00447352    -0.54134665     0.00071394     0.00050948    -0.00076166
H         0.74870679    -0.08846986     1.85665649    -0.00074008     0.00039917     0.00038474
H        -0.94757060     0.03539233     1.89685520     0.00045170     0.00042918    -0.00027200
H        -0.97050893     0.03574578    -0.48806199     0.00036177     0.00036058     0.00060561
     6
  Step:     5            Position(A)                                  Velocity(au)
C        -0.03475778     0.01915471     0.02847608    -0.00008754    -0.00003144    -0.00053464
N        -0.03776482    -0.06436339     1.28302548    -0.00000935    -0.00009392     0.00047464
H         0.89414622     0.00726601    -0.54577552     0.00079433     0.00051050    -0.00085026
H         0.74537951    -0.08630636     1.85929113    -0.00046822     0.00039107     0.00058153
H        -0.94458488     0.03773189     1.89497832     0.00063233     0.00042543    -0.00040936
H        -0.96891038     0.03769772    -0.48514983     0.00021463     0.00035269     0.00045298
     6
  Step:     6            Position(A)                                  Velocity(au)
C        -0.03522596     0.01900258     0.02536729    -0.00008205    -0.00002434    -0.00059515
N        -0.03789895    -0.06489159     1.28581406    -0.00003903    -0.00009849     0.00053831
H         0.89869704     0.01006588    -0.55066084     0.00085660     0.00051042    -0.00092499
H         0.74357770    -0.08418587     1.86302694    -0.00018695     0.00038234     0.00078072
H        -0.94064371     0.04005268     1.89237084     0.00079603     0.00042116    -0.00053552
H        -0.96815774     0.03960935    -0.48309979     0.00005434     0.00034467     0.00029096
     6
  Step:     7            Position(A)                                  Velocity(au)
C        -0.03565807     0.01888766     0.02194558    -0.00007412    -0.00001779    -0.00064539
N        -0.03819307    -0.06544409     1.28893234    -0.00006690    -0.00010228     0.00059185
H         0.90354560     0.01286685    -0.55592534     0.00089810     0.00050833    -0.00098352
H         0.74332807    -0.08211093     1.86785793     0.00009248     0.00037273     0.00097233
H        -0.93585011     0.04235329     1.88910205     0.00093652     0.00041629    -0.00064577
H        -0.96831407     0.04147976    -0.48195719    -0.00011418     0.00033593     0.00012288
     6
  Step:     8            Position(A)                                  Velocity(au)
C        -0.03604131     0.01880687     0.01826778    -0.00006399    -0.00001184    -0.00068368
N        -0.03863488    -0.06601668     1.29232458    -0.00009169    -0.00010511     0.00063373
H         0.90857635     0.01565770    -0.56147988     0.00091664     0.00050332    -0.00102367
H         0.74459495    -0.08008577     1.87372281     0.00035766     0.00036187     0.00114558
H        -0.93034175     0.04463195     1.88526723     0.00104704     0.00041075    -0.00073502
H        -0.96941380     0.04330471    -0.48174805    -0.00028457     0.00032586    -0.00004674
     6
  Step:     9            Position(A)                                  Velocity(au)
C        -0.03636439     0.01875693     0.01439948    -0.00005206    -0.00000654    -0.00070860
N        -0.03920515    -0.06660426     1.29592711    -0.00011215    -0.00010684     0.00066263
H         0.91366294     0.01842219    -0.56722405     0.00091090     0.00049459    -0.00104375
H         0.74727567    -0.07811684     1.88050221     0.00059605     0.00034941     0.00129005
H        -0.92429344     0.04688691     1.88098936     0.00112110     0.00040464    -0.00079838
H        -0.97145505     0.04507644    -0.48247306    -0.00044933     0.00031390    -0.00021243
     6
  Step:    10            Position(A)                                  Velocity(au)
C        -0.03661831     0.01873439     0.01041352    -0.00003886    -0.00000191    -0.00071941
N        -0.03987793    -0.06720088     1.29966932    -0.00012718    -0.00010736     0.00067778
H         0.91867296     0.02113977    -0.57304898     0.00088093     0.00048168    -0.00104312
H         0.75120172    -0.07621283     1.88802190     0.00079653     0.00033513     0.00139712
H        -0.91791532     0.04911707     1.87641783     0.00115359     0.00039827    -0.00083199
H        -0.97439427     0.04678401    -0.48410267    -0.00060063     0.00029967    -0.00036827
     6
  Step:    11            Position(A)                                  Velocity(au)
C        -0.03679720     0.01873562     0.00638634    -0.00002505     0.00000201    -0.00071644
N        -0.04062179    -0.06780014     1.30347661    -0.00013613    -0.00010673     0.00067937
H         0.92347519     0.02378745    -0.57884286     0.00082853     0.00046472    -0.00102273
H         0.75614789    -0.07438395     1.89606410     0.00095112     0.00031908     0.00146170
H        -0.91144411     0.05132303     1.87172214     0.00114215     0.00039225    -0.00083396
H        -0.97814521     0.04841435    -0.48657505    -0.00073152     0.00028314    -0.00050879
     6
  Step:    12            Position(A)                                  Velocity(au)
C        -0.03689878     0.01875689     0.00239218    -0.00001131     0.00000524    -0.00070143
N        -0.04140212    -0.06839584     1.30727570    -0.00013889    -0.00010514     0.00066892
H         0.92794932     0.02634286    -0.58449962     0.00075748     0.00044453    -0.00098553
H         0.76185061    -0.07264031     1.90438734     0.00105662     0.00030173     0.00148354
H        -0.90512763     0.05350871     1.86708062     0.00108810     0.00038759    -0.00080513
H        -0.98258450     0.04995413    -0.48979921    -0.00083735     0.00026471    -0.00063017
     6
  Step:    13            Position(A)                                  Velocity(au)
C        -0.03692442     0.01879455    -0.00150445     0.00000179     0.00000783    -0.00067747
N        -0.04218427    -0.06898287     1.31100164    -0.00013596    -0.00010296     0.00064923
H         0.93199646     0.02878820    -0.58992968     0.00067299     0.00042263    -0.00093630
H         0.76803444    -0.07098963     1.91275328     0.00111529     0.00028393     0.00146748
H        -0.89920347     0.05568328     1.86266482     0.00099653     0.00038570    -0.00074911
H        -0.98756504     0.05139225    -0.49366418    -0.00091682     0.00024517    -0.00073117
     6
  Step:    14            Position(A)                                  Velocity(au)
C        -0.03687854     0.01884524    -0.00525607     0.00001388     0.00000987    -0.00064844
N        -0.04293702    -0.06955815     1.31460504    -0.00012829    -0.00010067     0.00062393
H         0.93554694     0.03111407    -0.59506985     0.00058065     0.00040092    -0.00088073
H         0.77444152    -0.06943490     1.92095420     0.00113383     0.00026678     0.00142201
H        -0.89387750     0.05786304     1.85862365     0.00087492     0.00038818    -0.00067139
H        -0.99293481     0.05272199    -0.49805368    -0.00097200     0.00022551    -0.00081343
     6
  Step:    15            Position(A)                                  Velocity(au)
C        -0.03676747     0.01890613    -0.00883638     0.00002481     0.00001149    -0.00061798
N        -0.04363488    -0.07012120     1.31805643    -0.00011698    -0.00009876     0.00059652
H         0.93856187     0.03332147    -0.59988813     0.00048502     0.00038116    -0.00082401
H         0.78085474    -0.06797317     1.92883198     0.00112092     0.00025123     0.00135649
H        -0.88931076     0.06007246     1.85507336     0.00073093     0.00039650    -0.00057766
H        -0.99855545     0.05394215    -0.50286168    -0.00100697     0.00020658    -0.00088048
     6
  Step:    16            Position(A)                                  Velocity(au)
C        -0.03659816     0.01897503    -0.01223899     0.00003462     0.00001280    -0.00058864
N        -0.04425884    -0.07067405     1.32134551    -0.00010296    -0.00009753     0.00056950
H         0.94102746     0.03542099    -0.60438085     0.00038885     0.00036444    -0.00076966
H         0.78710746    -0.06659611     1.93628199     0.00108443     0.00023785     0.00127844
H        -0.88561825     0.06234335     1.85209637     0.00057072     0.00041162    -0.00047249
H        -1.00431313     0.05505626    -0.50800278    -0.00102585     0.00018881    -0.00093614
     6
  Step:    17            Position(A)                                  Velocity(au)
C        -0.03637724     0.01905040    -0.01547125     0.00004338     0.00001390    -0.00056151
N        -0.04479535    -0.07122048     1.32447564    -0.00008688    -0.00009711     0.00054403
H         0.94294485     0.03742933    -0.60856335     0.00029319     0.00035111    -0.00071916
H         0.79307794    -0.06529223     1.94324200     0.00102973     0.00022668     0.00119221
H        -0.88287782     0.06471206     1.84974771     0.00039867     0.00043374    -0.00035907
H        -1.01011837     0.05607038    -0.51341348    -0.00103128     0.00017221    -0.00098308
     6
  Step:    18            Position(A)                                  Velocity(au)
C        -0.03611083     0.01913119    -0.01854631     0.00005115     0.00001485    -0.00053653
N        -0.04523472    -0.07176482     1.32745648    -0.00006920    -0.00009744     0.00052017
H         0.94432084     0.03936498    -0.61245903     0.00019810     0.00034089    -0.00067250
H         0.79867433    -0.06404989     1.94967396     0.00095990     0.00021740     0.00109956
H        -0.88114005     0.06721550     1.84806298     0.00021825     0.00046230    -0.00023978
H        -1.01589736     0.05699063    -0.51904562    -0.00102416     0.00015643    -0.00102238
     6
  Step:    19            Position(A)                                  Velocity(au)
C        -0.03580466     0.01921667    -0.02147692     0.00005793     0.00001569    -0.00051310
N        -0.04556994    -0.07231114     1.33029810    -0.00005032    -0.00009837     0.00049747
H         0.94516228     0.04124502    -0.61609092     0.00010344     0.00033321    -0.00062897
H         0.80382250    -0.06285880     1.95554991     0.00087671     0.00020956     0.00100099
H        -0.88043483     0.06988678     1.84706371     0.00003316     0.00049618    -0.00011699
H        -1.02158225     0.05782135    -0.52485745    -0.00100432     0.00014104    -0.00105395
     6
  Step:    20            Position(A)                                  Velocity(au)
C        -0.03546437     0.01930626    -0.02427230     0.00006367     0.00001642    -0.00049047
N        -0.04579629    -0.07286255     1.33300804    -0.00003068    -0.00009970     0.00047540
H         0.94547521     0.04308344    -0.61947810     0.00000935     0.00032749    -0.00058784
H         0.80845807    -0.06171125     1.96084455     0.00078158     0.00020272     0.00089676
H        -0.88076995     0.07275263     1.84675742    -0.00015195     0.00053393     0.00000642
H        -1.02710516     0.05856453    -0.53080723    -0.00097138     0.00012564    -0.00107725
     6
  Step:    21            Position(A)                                  Velocity(au)
C        -0.03509575     0.01939948    -0.02693745     0.00006834     0.00001706    -0.00046803
N        -0.04591152    -0.07342111     1.33559086    -0.00001078    -0.00010125     0.00045356
H         0.94526640     0.04489107    -0.62263550    -0.00008368     0.00032326    -0.00054861
H         0.81252402    -0.06060183     1.96553374     0.00067607     0.00019653     0.00078747
H        -0.88212654     0.07583118     1.84713522    -0.00033167     0.00057398     0.00012710
H        -1.03239695     0.05922009    -0.53685082    -0.00092524     0.00010994    -0.00109181
     6
  Step:    22            Position(A)                                  Velocity(au)
C        -0.03470484     0.01949585    -0.02947395     0.00007188     0.00001761    -0.00044537
N        -0.04591613    -0.07398782     1.33804891     0.00000883    -0.00010285     0.00043175
H         0.94454524     0.04667609    -0.62557527    -0.00017488     0.00032016    -0.00051106
H         0.81597187    -0.05952707     1.96959649     0.00056211     0.00019072     0.00067420
H        -0.88445608     0.07913179     1.84817002    -0.00050028     0.00061478     0.00024152
H        -1.03738821     0.05978640    -0.54294160    -0.00086619     0.00009376    -0.00109739
     6
  Step:    23            Position(A)                                  Velocity(au)
C        -0.03429788     0.01959495    -0.03188111     0.00007205     0.00001996    -0.00045660
N        -0.04581351    -0.07456278     1.34038334     0.00002784    -0.00010736     0.00043615
H         0.94332527     0.04844484    -0.62830832    -0.00027831     0.00038204    -0.00043946
H         0.81876353    -0.05848486     1.97301738     0.00043012     0.00012134     0.00055474
H        -0.88767969     0.08265531     1.84981608    -0.00063161     0.00073818     0.00033483
H        -1.04201176     0.06026082    -0.54903194    -0.00076568     0.00001238    -0.00107016
     6
  Step:    24            Position(A)                                  Velocity(au)
C        -0.03390568     0.01971729    -0.03453829     0.00006900     0.00002443    -0.00051079
N        -0.04560732    -0.07517854     1.34288642     0.00004561    -0.00011448     0.00047541
H         0.94145839     0.05091345    -0.63044947    -0.00039545     0.00048861    -0.00033037
H         0.82074247    -0.05818123     1.97574931     0.00027894     0.00000952     0.00041942
H        -0.89146153     0.08731925     1.85188380    -0.00071876     0.00091279     0.00039593
H        -1.04588066     0.05992370    -0.55481119    -0.00062080    -0.00011117    -0.00100486
     6
  Step:    25            Position(A)                                  Velocity(au)
C        -0.03353267     0.01986590    -0.03754540     0.00006494     0.00002905    -0.00057322
N        -0.04530773    -0.07583232     1.34565528     0.00006137    -0.00012090     0.00052329
H         0.93894005     0.05386310    -0.63197190    -0.00050836     0.00056841    -0.00022069
H         0.82185674    -0.05837925     1.97766838     0.00012340    -0.00007374     0.00027178
H        -0.89565023     0.09277746     1.85420665    -0.00077894     0.00104352     0.00043287
H        -1.04889599     0.05902800    -0.56017501    -0.00046275    -0.00020436    -0.00092529
     6
  Step:    26            Position(A)                                  Velocity(au)
C        -0.03318521     0.02003960    -0.04089807     0.00005966     0.00003333    -0.00063241
N        -0.04492642    -0.07651987     1.34869222     0.00007475    -0.00012633     0.00056939
H         0.93581824     0.05721987    -0.63289800    -0.00061010     0.00063615    -0.00011635
H         0.82211158    -0.05899935     1.97876470    -0.00002846    -0.00014464     0.00012529
H        -0.90010370     0.09889697     1.85668643    -0.00081224     0.00115149     0.00045240
H        -1.05101485     0.05765639    -0.56507709    -0.00029892    -0.00028454    -0.00083801
     6
  Step:    27            Position(A)                                  Velocity(au)
C        -0.03286991     0.02023610    -0.04457029     0.00005319     0.00003709    -0.00068511
N        -0.04447739    -0.07723567     1.35198016     0.00008533    -0.00013058     0.00061082
H         0.93216291     0.06092958    -0.63326439    -0.00069680     0.00069407    -0.00001995
H         0.82154060    -0.05998592     1.97906018    -0.00017134    -0.00020604    -0.00001462
H        -0.90467281     0.10556840     1.85923198    -0.00081783     0.00123909     0.00045554
H        -1.05221648     0.05586724    -0.56948382    -0.00013358    -0.00035453    -0.00074532
     6
  Step:    28            Position(A)                                  Velocity(au)
C        -0.03259330     0.02045238    -0.04852264     0.00004557     0.00004022    -0.00072924
N        -0.04397680    -0.07797306     1.35548998     0.00009277    -0.00013345     0.00064570
H         0.92806357     0.06494408    -0.63312003    -0.00076513     0.00074292     0.00006622
H         0.82020479    -0.06129240     1.97860203    -0.00030016    -0.00025911    -0.00014334
H        -0.90920521     0.11268672     1.86175612    -0.00079587     0.00130678     0.00044331
H        -1.05250141     0.05371083    -0.57337172     0.00002903    -0.00041528    -0.00064938
     6
  Step:    29            Position(A)                                  Velocity(au)
C        -0.03236154     0.02068476    -0.05270564     0.00003694     0.00004261    -0.00076337
N        -0.04344250    -0.07872448     1.35918351     0.00009685    -0.00013486     0.00067272
H         0.92362718     0.06921758    -0.63252568    -0.00081241     0.00078313     0.00014008
H         0.81819206    -0.06287657     1.97746110    -0.00041020    -0.00030444    -0.00025674
H        -0.91355155     0.12014675     1.86417750    -0.00074798     0.00135481     0.00041723
H        -1.05189261     0.05123439    -0.57672832     0.00018461    -0.00046720    -0.00055257
     6
  Step:    30            Position(A)                                  Velocity(au)
C        -0.03218004     0.02092913    -0.05706296     0.00002748     0.00004424    -0.00078687
N        -0.04289333    -0.07948186     1.36301611     0.00009751    -0.00013480     0.00069124
H         0.91897469     0.07370549    -0.63155288    -0.00083700     0.00081523     0.00020003
H         0.81561567    -0.06469831     1.97572972    -0.00049749    -0.00034249    -0.00035140
H        -0.91757329     0.12784388     1.86642393    -0.00067711     0.00138406     0.00037946
H        -1.05043609     0.04848397    -0.57955362     0.00032912    -0.00051064    -0.00045743
     6
  Step:    31            Position(A)                                  Velocity(au)
C        -0.03205318     0.02118115    -0.06153534     0.00001742     0.00004509    -0.00079992
N        -0.04234831    -0.08023717     1.36694009     0.00009487    -0.00013340     0.00070131
H         0.91423495     0.07836557    -0.63028113    -0.00083855     0.00084021     0.00024511
H         0.81260952    -0.06671979     1.97351789    -0.00055926    -0.00037387    -0.00042494
H        -0.92114958     0.13567768     1.86843557    -0.00058737     0.00139632     0.00033264
H        -1.04819947     0.04550437    -0.58186130     0.00045919    -0.00054619    -0.00036658
     6
  Step:    32            Position(A)                                  Velocity(au)
C        -0.03198401     0.02143654    -0.06606503     0.00000700     0.00004522    -0.00080350
N        -0.04182565    -0.08098309     1.37090842     0.00008921    -0.00013087     0.00070366
H         0.90953794     0.08316094    -0.62879446    -0.00081791     0.00085958     0.00027515
H         0.80932187    -0.06890570     1.97094760    -0.00059411    -0.00039936    -0.00047619
H        -0.92418335     0.14355763     1.87016739    -0.00048353     0.00139443     0.00027965
H        -1.04526848     0.04233728    -0.58367895     0.00057244    -0.00057484    -0.00028237
     6
  Step:    33            Position(A)                                  Velocity(au)
C        -0.03197423     0.02169130    -0.07059995    -0.00000355     0.00004472    -0.00079916
N        -0.04134189    -0.08171360     1.37487836     0.00008090    -0.00012752     0.00069953
H         0.90500781     0.08806281    -0.62717710    -0.00077703     0.00087516     0.00029071
H         0.80590709    -0.07122515     1.96814579    -0.00060210    -0.00042004    -0.00050527
H        -0.92660449     0.15140879     1.87159036    -0.00037039     0.00138189     0.00022327
H        -1.04174150     0.03901935    -0.58504683     0.00066762    -0.00059787    -0.00020673
     6
  Step:    34            Position(A)                                  Velocity(au)
C        -0.03202413     0.02194198    -0.07509680    -0.00001401     0.00004370    -0.00078869
N        -0.04091138    -0.08242426     1.37881415     0.00007036    -0.00012364     0.00069035
H         0.90075635     0.09305157    -0.62550897    -0.00071847     0.00088882     0.00029299
H         0.80251722    -0.07365282     1.96523724    -0.00058441    -0.00043708    -0.00051329
H        -0.92836938     0.15917511     1.87269066    -0.00025226     0.00136232     0.00016596
H        -1.03772330     0.03558045    -0.58601530     0.00074442    -0.00061671    -0.00014099
     6
  Step:    35            Position(A)                                  Velocity(au)
C        -0.03213274     0.02218573    -0.07952231    -0.00002420     0.00004227    -0.00077376
N        -0.04054596    -0.08311233     1.38268823     0.00005800    -0.00011950     0.00067751
H         0.89687979     0.09811792    -0.62386250    -0.00064497     0.00090230     0.00028350
H         0.79929568    -0.07616977     1.96233896    -0.00054295    -0.00045162    -0.00050200
H        -0.92945830     0.16682064     1.87346782    -0.00013270     0.00133906     0.00010970
H        -1.03331997     0.03204260    -0.58664178     0.00080309    -0.00063277    -0.00008593
     6
  Step:    36            Position(A)                                  Velocity(au)
C        -0.03229803     0.02242029    -0.08385252    -0.00003397     0.00004050    -0.00075571
N        -0.04025509    -0.08377654     1.38648068     0.00004420    -0.00011531     0.00066208
H         0.89345798     0.10326178    -0.62230093    -0.00055911     0.00091691     0.00026386
H         0.79637332    -0.07876323     1.95955671    -0.00048000    -0.00046463    -0.00047346
H        -0.92987100     0.17432764     1.87393201    -0.00001449     0.00131472     0.00005600
H        -1.02863573     0.02842016    -0.58698764     0.00084408    -0.00064723    -0.00004190
     6
  Step:    37            Position(A)                                  Velocity(au)
C        -0.03251697     0.02264390    -0.08807088    -0.00004313     0.00003847    -0.00073544
N        -0.04004594    -0.08441674     1.39017771     0.00002932    -0.00011120     0.00064483
H         0.89055515     0.10849005    -0.62087772    -0.00046330     0.00093349     0.00023571
H         0.79386594    -0.08142566     1.95698314    -0.00039816    -0.00047685    -0.00042992
H        -0.92962223     0.18169280     1.87410134     0.00010021     0.00129117     0.00000600
H        -1.02377175     0.02472110    -0.58711576     0.00086778    -0.00066097    -0.00000896
     6
  Step:    38            Position(A)                                  Velocity(au)
C        -0.03278560     0.02285519    -0.09216596    -0.00005153     0.00003623    -0.00071354
N        -0.03992365    -0.08503355     1.39376979     0.00001369    -0.00010725     0.00062621
H         0.88822085     0.11381388    -0.61963652    -0.00035991     0.00095239     0.00020068
H         0.79187257    -0.08415350     1.95469686    -0.00030034    -0.00048878    -0.00037377
H        -0.92873827     0.18892297     1.87399984     0.00020964     0.00126962    -0.00003944
H        -1.01882636     0.02094861    -0.58708892     0.00087443    -0.00067456     0.00001300
     6
  Step:    39            Position(A)                                  Velocity(au)
C        -0.03309894     0.02305309    -0.09612951    -0.00005897     0.00003382    -0.00069032
N        -0.03989135    -0.08562802     1.39725008    -0.00000235    -0.00010350     0.00060652
H         0.88649038     0.11924619    -0.61861124    -0.00025135     0.00097363     0.00016044
H         0.79047391    -0.08694585     1.95276186    -0.00018985    -0.00050074    -0.00030754
H        -0.92725460     0.19603171     1.87365596     0.00031229     0.00125086    -0.00007960
H        -1.01389605     0.01710271    -0.58696899     0.00086417    -0.00068838     0.00002416
     6
  Step:    40            Position(A)                                  Velocity(au)
C        -0.03345093     0.02323675    -0.09995504    -0.00006525     0.00003127    -0.00066597
N        -0.03995013    -0.08620143     1.40061332    -0.00001842    -0.00009999     0.00058591
H         0.88538474     0.12479968    -0.61782621    -0.00014016     0.00099698     0.00011664
H         0.78973047    -0.08980345     1.95122684    -0.00007035    -0.00051289    -0.00023394
H        -0.92521461     0.20303686     1.87310174     0.00040679     0.00123542    -0.00011388
H        -1.00907566     0.01318137    -0.58681629     0.00083722    -0.00070266     0.00002484
     6
  Step:    41            Position(A)                                  Velocity(au)
C        -0.03383449     0.02340562    -0.10363723    -0.00007019     0.00002864    -0.00064065
N        -0.04009904    -0.08675523     1.40385530    -0.00003416    -0.00009673     0.00056456
H         0.88491028     0.13048549    -0.61729629    -0.00002897     0.00102206     0.00007095
H         0.78968084    -0.09272785     1.95012453     0.00005410    -0.00052533    -0.00015587
H        -0.92266869     0.20995900     1.87237214     0.00049194     0.00122370    -0.00014180
H        -1.00445777     0.00918138    -0.58668894     0.00079406    -0.00071754     0.00001548
     6
  Step:    42            Position(A)                                  Velocity(au)
C        -0.03424159     0.02355933    -0.10717161    -0.00007364     0.00002595    -0.00061451
N        -0.04033495    -0.08729098     1.40697270    -0.00004918    -0.00009374     0.00054259
H         0.88505840     0.13631264    -0.61702695     0.00007955     0.00104845     0.00002502
H         0.79033987    -0.09572095     1.94947109     0.00017920    -0.00053803    -0.00007626
H        -0.91967323     0.21682107     1.87150443     0.00056668     0.00121606    -0.00016297
H        -1.00013105     0.00509865    -0.58664193     0.00073551    -0.00073314    -0.00000332
     6
  Step:    43            Position(A)                                  Velocity(au)
C        -0.03466345     0.02369774    -0.11055453    -0.00007548     0.00002326    -0.00058770
N        -0.04065263    -0.08781037     1.40996304    -0.00006311    -0.00009104     0.00052018
H         0.88580571     0.14228747    -0.61701469     0.00018278     0.00107564    -0.00001963
H         0.79169807    -0.09878420     1.94926610     0.00030067    -0.00055096     0.00000199
H        -0.91628978     0.22364779     1.87053762     0.00063018     0.00121286    -0.00017713
H        -0.99617847     0.00092872    -0.58672629     0.00066275    -0.00074953    -0.00003078
     6
  Step:    44            Position(A)                                  Velocity(au)
C        -0.03509075     0.02382098    -0.11378320    -0.00007564     0.00002061    -0.00056041
N        -0.04104489    -0.08831520     1.41282469    -0.00007561    -0.00008867     0.00049749
H         0.88711467     0.14841356    -0.61724778     0.00027829     0.00110317    -0.00006158
H         0.79372245    -0.10191917     1.94949349     0.00041443    -0.00056409     0.00007620
H        -0.91258371     0.23046564     1.86951174     0.00068186     0.00121438    -0.00018414
H        -0.99267511    -0.00333352    -0.58698825     0.00057744    -0.00076681    -0.00006597
     6