     6
  Step:   120            Position(A)                                  Velocity(au)
C        -0.04446102    -0.03070991    -0.00547845    -0.00009888     0.00002862     0.00043297
N        -0.03911660    -0.07998667     1.32496912     0.00008329     0.00004695    -0.00040216
H         0.82161567    -0.19169072    -0.71089496    -0.00043121    -0.00138425     0.00055804
H         0.61604840     0.58703642     1.82898772    -0.00095288     0.00101293    -0.00017441
H        -0.85869073    -0.34052691     1.91542933     0.00039490    -0.00142562    -0.00042307
H        -0.71852486     0.75288159    -0.48844545     0.00101001     0.00080352     0.00046866
