     6
  Step:     0            Position(A)                                  Velocity(au)
C        -0.03125529     0.00357813     0.02545682    -0.00002374    -0.00008639     0.00030200
N        -0.04785023    -0.04415877     1.29139325    -0.00010357    -0.00000281    -0.00031332
H         0.89077525     0.04007143    -0.53714082     0.00002125     0.00044172     0.00035234
H         0.85304048    -0.15492463     1.86769538     0.00105842    -0.00001012     0.00118209
H        -0.92324135    -0.06109339     1.80855724     0.00104259     0.00027978    -0.00014581
H        -0.99612851     0.07717697    -0.49607030    -0.00040008     0.00035716    -0.00063330
     6
  Step:     1            Position(A)                                  Velocity(au)
C        -0.03140288     0.00313745     0.02669125    -0.00003112    -0.00007415     0.00015173
N        -0.04837351    -0.04417396     1.29005401    -0.00008603    -0.00000187    -0.00017811
H         0.89114441     0.04238728    -0.53530395     0.00012744     0.00040006     0.00031947
H         0.85848954    -0.15504706     1.87394478     0.00092448    -0.00003820     0.00109038
H        -0.91778691    -0.05968502     1.80791273     0.00093740     0.00022948    -0.00008838
H        -0.99837065     0.07903771    -0.49961120    -0.00042306     0.00031835    -0.00065440
     6
  Step:     2            Position(A)                                  Velocity(au)
C        -0.03159561     0.00276712     0.02711634    -0.00004086    -0.00006511     0.00001454
N        -0.04879113    -0.04417927     1.28944516    -0.00006511    -0.00000204    -0.00005350
H         0.89216909     0.04444701    -0.53364662     0.00028478     0.00037279     0.00029157
H         0.86315195    -0.15534243     1.87962133     0.00078066    -0.00005276     0.00096886
H        -0.91298865    -0.05858347     1.80759056     0.00079788     0.00019226    -0.00003520
H        -1.00075573     0.08065890    -0.50322777    -0.00047153     0.00029200    -0.00065505
     6
  Step:     3            Position(A)                                  Velocity(au)
C        -0.03184965     0.00242551     0.02685021    -0.00005175    -0.00006425    -0.00011450
N        -0.04908549    -0.04419628     1.28946902    -0.00004189    -0.00000818     0.00006352
H         0.89425823     0.04646346    -0.53211584     0.00046805     0.00039378     0.00027131
H         0.86702554    -0.15562391     1.88453857     0.00062974    -0.00002468     0.00082790
H        -0.90906268    -0.05758281     1.80752789     0.00063220     0.00020276     0.00002147
H        -1.00352644     0.08223057    -0.50677370    -0.00053111     0.00030744    -0.00063901
     6
  Step:     4            Position(A)                                  Velocity(au)
C        -0.03216125     0.00206492     0.02586489    -0.00006170    -0.00006868    -0.00025102
N        -0.04924900    -0.04426867     1.29013940    -0.00001745    -0.00001968     0.00018517
H         0.89728481     0.04875090    -0.53068129     0.00061835     0.00045154     0.00025445
H         0.87003489    -0.15561219     1.88867008     0.00046339     0.00003661     0.00068519
H        -0.90607886    -0.05636735     1.80782519     0.00045751     0.00025045     0.00009763
H        -1.00656065     0.08401915    -0.51021199    -0.00056156     0.00035331    -0.00061931
     6
  Step:     5            Position(A)                                  Velocity(au)
C        -0.03252376     0.00167519     0.02410771    -0.00007050    -0.00007363    -0.00039571
N        -0.04927609    -0.04441130     1.29149207     0.00000790    -0.00003265     0.00031231
H         0.90101402     0.05139670    -0.52933587     0.00072788     0.00051628     0.00023841
H         0.87208832    -0.15522398     1.89202454     0.00028177     0.00010545     0.00054409
H        -0.90406415    -0.05484651     1.80859454     0.00027887     0.00030581     0.00019193
H        -1.00966170     0.08609067    -0.51353992    -0.00055810     0.00040366    -0.00059914
     6
  Step:     6            Position(A)                                  Velocity(au)
C        -0.03293134     0.00126061     0.02154251    -0.00007839    -0.00007745    -0.00054407
N        -0.04916275    -0.04462531     1.29355079     0.00003381    -0.00004528     0.00044151
H         0.90523544     0.05439024    -0.52807717     0.00080463     0.00057578     0.00022288
H         0.87311264    -0.15446031     1.89461321     0.00008946     0.00017134     0.00040428
H        -0.90303274    -0.05302699     1.80992166     0.00009802     0.00035676     0.00029828
H        -1.01265682     0.08842833    -0.51675639    -0.00052778     0.00044842    -0.00057772
     6
  Step:     7            Position(A)                                  Velocity(au)
C        -0.03338011     0.00082904     0.01816405    -0.00008557    -0.00007992    -0.00069056
N        -0.04890676    -0.04490599     1.29631533     0.00005982    -0.00005694     0.00056841
H         0.90980410     0.05768675    -0.52690105     0.00085811     0.00062668     0.00020817
H         0.87306556    -0.15335217     1.89644102    -0.00010757     0.00023133     0.00026548
H        -0.90299335    -0.05094913     1.81185312    -0.00008299     0.00040019     0.00040993
H        -1.01542736     0.09098935    -0.51985112    -0.00047910     0.00048533    -0.00055367
     6
  Step:     8            Position(A)                                  Velocity(au)
C        -0.03386676     0.00038704     0.01399380    -0.00009203    -0.00008126    -0.00083031
N        -0.04850884    -0.04524768     1.29976421     0.00008524    -0.00006748     0.00068910
H         0.91461566     0.06124060    -0.52580159     0.00089336     0.00066900     0.00019437
H         0.87193672    -0.15193155     1.89751522    -0.00030304     0.00028546     0.00012915
H        -0.90393991    -0.04865241     1.81440270    -0.00026023     0.00043656     0.00052105
H        -1.01789404     0.09373365    -0.52280868    -0.00041797     0.00051506    -0.00052647
     6
  Step:     9            Position(A)                                  Velocity(au)
C        -0.03438740    -0.00006036     0.00907603    -0.00009757    -0.00008169    -0.00095888
N        -0.04797376    -0.04564459     1.30385767     0.00010919    -0.00007685     0.00079996
H         0.91958224     0.06500919    -0.52477362     0.00091221     0.00070288     0.00018116
H         0.86974865    -0.15022771     1.89785457    -0.00049016     0.00033383    -0.00000174
H        -0.90584164    -0.04617090     1.81755615    -0.00042822     0.00046646     0.00062636
H        -1.02000218     0.09662688    -0.52561346    -0.00034839     0.00053829    -0.00049633
     6
  Step:    10            Position(A)                                  Velocity(au)
C        -0.03493692    -0.00050894     0.00347697    -0.00010193    -0.00008132    -0.00107193
N        -0.04731130    -0.04609058     1.30853807     0.00013062    -0.00008492     0.00089745
H         0.92462069     0.06894967    -0.52381462     0.00091505     0.00072789     0.00016799
H         0.86656066    -0.14827011     1.89749613    -0.00066139     0.00037602    -0.00012312
H        -0.90863658    -0.04353629     1.82127250    -0.00058059     0.00048998     0.00072077
H        -1.02171517     0.09963752    -0.52825235    -0.00027366     0.00055520    -0.00046384
     6
  Step:    11            Position(A)                                  Velocity(au)
C        -0.03550861    -0.00095483    -0.00271511    -0.00010480    -0.00008017    -0.00116539
N        -0.04653690    -0.04657870     1.31372957     0.00014847    -0.00009150     0.00097817
H         0.92964779     0.07301592    -0.52292569     0.00090192     0.00074331     0.00015425
H         0.86247343    -0.14609147     1.89650024    -0.00080864     0.00041121    -0.00023027
H        -0.91222807    -0.04078111     1.82548460    -0.00071078     0.00050676     0.00079954
H        -1.02301239     0.10273406    -0.53071567    -0.00019686     0.00056567    -0.00042972
     6
  Step:    12            Position(A)                                  Velocity(au)
C        -0.03609408    -0.00139416    -0.00939088    -0.00010592    -0.00007828    -0.00123586
N        -0.04567194    -0.04710093     1.31933869     0.00016170    -0.00009642     0.00103923
H         0.93457942     0.07715707    -0.52211142     0.00087313     0.00074848     0.00013946
H         0.85763188    -0.14372966     1.89495357    -0.00092402     0.00043845    -0.00031833
H        -0.91648473    -0.03794080     1.83010078    -0.00081291     0.00051632     0.00085870
H        -1.02388882     0.10588350    -0.53299713    -0.00012105     0.00056953    -0.00039471
     6
  Step:    13            Position(A)                                  Velocity(au)
C        -0.03668353    -0.00182310    -0.01642344    -0.00010514    -0.00007569    -0.00128132
N        -0.04474327    -0.04764824     1.32525678     0.00016954    -0.00009956     0.00107884
H         0.93933262     0.08131812    -0.52137883     0.00082973     0.00074320     0.00012343
H         0.85222406    -0.14122814     1.89296932    -0.00100073     0.00045703    -0.00038293
H        -0.92124498    -0.03505408     1.83500937    -0.00088279     0.00051838     0.00089569
H        -1.02435514     0.10905132    -0.53509385    -0.00004933     0.00056688    -0.00035986
     6
  Step:    14            Position(A)                                  Velocity(au)
C        -0.03726626    -0.00223798    -0.02367583    -0.00010246    -0.00007252    -0.00130194
N        -0.04378179    -0.04821088     1.33136622     0.00017161    -0.00010093     0.00109706
H         0.94382978     0.08544268    -0.52073531     0.00077393     0.00072817     0.00010629
H         0.84647518    -0.13863444     1.89068440    -0.00103436     0.00046685    -0.00042102
H        -0.92632664    -0.03216159     1.84008648    -0.00091885     0.00051325     0.00091004
H        -1.02443876     0.11220336    -0.53700903     0.00001542     0.00055844    -0.00032657
     6
  Step:    15            Position(A)                                  Velocity(au)
C        -0.03783166    -0.00263571    -0.03101295    -0.00009808    -0.00006896    -0.00130057
N        -0.04282018    -0.04877926     1.33755047     0.00016807    -0.00010074     0.00109624
H         0.94800532     0.08947802    -0.52018775     0.00070916     0.00070524     0.00008823
H         0.84063300    -0.13599659     1.88825136    -0.00102418     0.00046876    -0.00043162
H        -0.93154165    -0.02930256     1.84520729    -0.00092271     0.00050202     0.00090370
H        -1.02418239     0.11530923    -0.53875343     0.00007091     0.00054574    -0.00029645
     6
  Step:    16            Position(A)                                  Velocity(au)
C        -0.03837034    -0.00301427    -0.03831596    -0.00009240    -0.00006531    -0.00128255
N        -0.04188984    -0.04934491     1.34370628     0.00015959    -0.00009939     0.00108083
H         0.95181261     0.09338141    -0.51974210     0.00063963     0.00067726     0.00006951
H         0.83494620    -0.13335770     1.88582582    -0.00097326     0.00046456    -0.00041602
H        -0.93671338    -0.02651045     1.85025922    -0.00089894     0.00048653     0.00088083
H        -1.02364049     0.11834666    -0.54034611     0.00011590     0.00053101    -0.00027105
     6
  Step:    17            Position(A)                                  Velocity(au)
C        -0.03887506    -0.00337315    -0.04549555    -0.00013300    -0.00009577    -0.00194305
N        -0.04101805    -0.04990155     1.34975526     0.00022788    -0.00015079     0.00163625
H         0.95522808     0.09712564    -0.51940279     0.00088197     0.00100277     0.00007796
H         0.82964289    -0.13075071     1.88355366    -0.00137390     0.00070725    -0.00058404
H        -0.94169258    -0.02380864     1.85515364    -0.00132241     0.00072635     0.00131144
H        -1.02287369     0.12130544    -0.54181416     0.00023255     0.00080039    -0.00038978
     6
  Step:    18            Position(A)                                  Velocity(au)
C        -0.03960488    -0.00391477    -0.05600507    -0.00007531    -0.00005787    -0.00106892
N        -0.03977970    -0.05072091     1.35863703     0.00012517    -0.00008375     0.00090632
H         0.96024000     0.10271878    -0.51932084     0.00053614     0.00058856    -0.00002674
H         0.82226601    -0.12693122     1.88047636    -0.00073009     0.00038713    -0.00029439
H        -0.94897163    -0.01982256     1.86241127    -0.00074723     0.00041231     0.00075258
H        -1.02174145     0.12574736    -0.54426914     0.00009911     0.00046543    -0.00028877
     6
  Step:    19            Position(A)                                  Velocity(au)
C        -0.04000870    -0.00423375    -0.06196338    -0.00006737    -0.00005512    -0.00103753
N        -0.03912621    -0.05118853     1.36368242     0.00010494    -0.00008159     0.00087717
H         0.96306511     0.10596371    -0.51951803     0.00046412     0.00055961    -0.00004293
H         0.81856160    -0.12476619     1.87903976    -0.00056974     0.00037835    -0.00020682
H        -0.95297802    -0.01754096     1.86653332    -0.00066496     0.00039462     0.00070364
H        -1.02112471     0.12835521    -0.54587053     0.00011513     0.00045811    -0.00028013
     6
  Step:    20            Position(A)                                  Velocity(au)
C        -0.04036648    -0.00453794    -0.06773460    -0.00005967    -0.00005316    -0.00101331
N        -0.03859338    -0.05164331     1.36855366     0.00008366    -0.00008006     0.00085371
H         0.96548703     0.10904527    -0.51980617     0.00039789     0.00053622    -0.00005964
H         0.81582502    -0.12265387     1.87813825    -0.00039463     0.00037258    -0.00010811
H        -0.95648915    -0.01536132     1.87036604    -0.00057942     0.00038013     0.00065769
H        -1.02043989     0.13092640    -0.54743606     0.00012469     0.00045707    -0.00027871
     6
  Step:    21            Position(A)                                  Velocity(au)
C        -0.04067975    -0.00483164    -0.07335935    -0.00005200    -0.00005180    -0.00099359
N        -0.03818540    -0.05208885     1.37328343     0.00006136    -0.00007896     0.00083380
H         0.96753986     0.11199419    -0.52018877     0.00033588     0.00051656    -0.00007724
H         0.81412354    -0.12057602     1.87782395    -0.00020650     0.00036936    -0.00000004
H        -0.95949435    -0.01326597     1.87392988    -0.00049037     0.00036759     0.00061363
H        -1.01972240     0.13349559    -0.54900496     0.00012799     0.00046105    -0.00028340
     6
  Step:    22            Position(A)                                  Velocity(au)
C        -0.04094888    -0.00511811    -0.07886352    -0.00004419    -0.00005085    -0.00097569
N        -0.03790616    -0.05252775     1.37789274     0.00003824    -0.00007814     0.00081534
H         0.96924908     0.11483113    -0.52067129     0.00027701     0.00049893    -0.00009592
H         0.81351212    -0.11851679     1.87813778    -0.00000892     0.00036824     0.00011464
H        -0.96198163    -0.01124402     1.87723911    -0.00039799     0.00035586     0.00057052
H        -1.01900634     0.13609047    -0.55061029     0.00012511     0.00046875    -0.00029309
     6
  Step:    23            Position(A)                                  Velocity(au)
C        -0.04117337    -0.00539963    -0.08425811    -0.00003618    -0.00005018    -0.00095759
N        -0.03775826    -0.05296167     1.38239098     0.00001474    -0.00007745     0.00079683
H         0.97063410     0.11756735    -0.52126023     0.00022082     0.00048205    -0.00011578
H         0.81402393    -0.11646271     1.87910446     0.00019264     0.00036901     0.00023223
H        -0.96394000    -0.00929091     1.88030275    -0.00030328     0.00034408     0.00052803
H        -1.01832494     0.13873171    -0.55227884     0.00011624     0.00047916    -0.00030680
     6
  Step:    24            Position(A)                                  Velocity(au)
C        -0.04135241    -0.00567774    -0.08954307    -0.00002799    -0.00004970    -0.00093803
N        -0.03774182    -0.05339155     1.38677937    -0.00000857    -0.00007684     0.00077741
H         0.97171173     0.12020721    -0.52196256     0.00016733     0.00046513    -0.00013687
H         0.81566052    -0.11440139     1.88072775     0.00039142     0.00037172     0.00034849
H        -0.96536396    -0.00740667     1.88312794    -0.00020794     0.00033173     0.00048639
H        -1.01770995     0.14143426    -0.55403183     0.00010180     0.00049151    -0.00032365
     6
  Step:    25            Position(A)                                  Velocity(au)
C        -0.04148529    -0.00595348    -0.09471128    -0.00001968    -0.00004935    -0.00091631
N        -0.03785373    -0.05381797     1.39105429    -0.00003100    -0.00007628     0.00075671
H         0.97249884     0.12275062    -0.52278542     0.00011688     0.00044767    -0.00015917
H         0.81838584    -0.11232035     1.88298797     0.00058020     0.00037653     0.00045903
H        -0.96625725    -0.00559417     1.88572300    -0.00011409     0.00031854     0.00044624
H        -1.01719051     0.14420899    -0.55588549     0.00008240     0.00050529    -0.00034284
     6
  Step:    26            Position(A)                                  Velocity(au)
C        -0.04157170    -0.00622754    -0.09975183    -0.00001137    -0.00004909    -0.00089216
N        -0.03808723    -0.05424135     1.39521001    -0.00005190    -0.00007575     0.00073467
H         0.97301390     0.12519483    -0.52373593     0.00006991     0.00042944    -0.00018269
H         0.82212469    -0.11020640     1.88584192     0.00075202     0.00038366     0.00055976
H        -0.96663510    -0.00385781     1.88809952    -0.00002403     0.00030438     0.00040839
H        -1.01679191     0.14706382    -0.55785151     0.00005886     0.00052014    -0.00036363
     6
  Step:    27            Position(A)                                  Velocity(au)
C        -0.04161195    -0.00650041    -0.10465224    -0.00000317    -0.00004888    -0.00086560
N        -0.03843208    -0.05466205     1.39924036    -0.00007067    -0.00007528     0.00071143
H         0.97327781     0.12753566    -0.52482108     0.00002692     0.00041032    -0.00020740
H         0.82676528    -0.10804544     1.88922511     0.00090078     0.00039329     0.00064718
H        -0.96652498    -0.00220259     1.89027349     0.00005999     0.00028926     0.00037376
H        -1.01653466     0.15000469    -0.55993728     0.00003214     0.00053581    -0.00038530
     6
  Step:    28            Position(A)                                  Velocity(au)
C        -0.04160705    -0.00677242    -0.10940007     0.00000477    -0.00004873    -0.00083682
N        -0.03887492    -0.05508047     1.40313981    -0.00008679    -0.00007488     0.00068724
H         0.97331401     0.12976833    -0.52604766    -0.00001161     0.00039030    -0.00023327
H         0.83216506    -0.10582264     1.89305555     0.00102170     0.00040558     0.00071863
H        -0.96596641    -0.00063359     1.89226558     0.00013588     0.00027324     0.00034324
H        -1.01643364     0.15303615    -0.56214613     0.00000331     0.00055216    -0.00040716
     6
  Step:    29            Position(A)                                  Velocity(au)
C        -0.04155873    -0.00704384    -0.11398387     0.00001234    -0.00004862    -0.00080615
N        -0.03939996    -0.05549705     1.40690398    -0.00009992    -0.00007456     0.00066240
H         0.97314831     0.13188795    -0.52742232    -0.00004531     0.00036942    -0.00026029
H         0.83815859    -0.10352273     1.89723871     0.00111160     0.00042059     0.00077240
H        -0.96500977     0.00084439     1.89410108     0.00020184     0.00025639     0.00031764
H        -1.01649775     0.15616199    -0.56447763    -0.00002654     0.00056913    -0.00042861
     6
  Step:    30            Position(A)                                  Velocity(au)
C        -0.04146942    -0.00731487    -0.11839390     0.00001940    -0.00004855    -0.00077397
N        -0.03998971    -0.05591231     1.41052990    -0.00010984    -0.00007434     0.00063720
H         0.97280848     0.13388974    -0.52895155    -0.00007389     0.00034773    -0.00028845
H         0.84456667    -0.10113028     1.90167291     0.00116893     0.00043836     0.00080777
H        -0.96371462     0.00222688     1.89580934     0.00025644     0.00023879     0.00029763
H        -1.01672978     0.15938565    -0.56692794    -0.00005634     0.00058674    -0.00044910
     6
  Step:    31            Position(A)                                  Velocity(au)
C        -0.04134214    -0.00758574    -0.12262244     0.00002588    -0.00004853    -0.00074069
N        -0.04062590    -0.05632679     1.41401604    -0.00011648    -0.00007423     0.00061192
H         0.97232364     0.13576910    -0.53064186    -0.00009716     0.00032528    -0.00031781
H         0.85120549    -0.09863001     1.90625456     0.00119373     0.00045888     0.00082488
H        -0.96214754     0.00350967     1.89742305     0.00029869     0.00022047     0.00028373
H        -1.01712664     0.16271082    -0.56949023    -0.00008510     0.00060511    -0.00046818
     6
  Step:    32            Position(A)                                  Velocity(au)
C        -0.04118041    -0.00785668    -0.12666389     0.00003170    -0.00004855    -0.00070668
N        -0.04129020    -0.05674106     1.41736214    -0.00011990    -0.00007422     0.00058677
H         0.97172368     0.13752154    -0.53249998    -0.00011506     0.00030205    -0.00034843
H         0.85789510    -0.09600677     1.91088295     0.00118736     0.00048215     0.00082461
H        -0.96037966     0.00468847     1.89897722     0.00032802     0.00020136     0.00027625
H        -1.01767992     0.16614189    -0.57215528    -0.00011193     0.00062445    -0.00048547
     6
  Step:    33            Position(A)                                  Velocity(au)
C        -0.04098807    -0.00812800    -0.13051464     0.00003682    -0.00004865    -0.00067226
N        -0.04196493    -0.05715568     1.42056901    -0.00012028    -0.00007432     0.00056189
H         0.97103871     0.13914237    -0.53453315    -0.00012759     0.00027798    -0.00038048
H         0.86446590    -0.09324543     1.91546372     0.00115219     0.00050821     0.00080837
H        -0.95848418     0.00575846     1.90050821     0.00034432     0.00018131     0.00027535
H        -1.01837671     0.16968463    -0.57491197    -0.00013615     0.00064508    -0.00050073
     6
  Step:    34            Position(A)                                  Velocity(au)
C        -0.04076915    -0.00840009    -0.13417246     0.00004122    -0.00004884    -0.00063759
N        -0.04263367    -0.05757117     1.42363792    -0.00011790    -0.00007451     0.00053731
H         0.97029860     0.14062630    -0.53674956    -0.00013483     0.00025289    -0.00041418
H         0.87076399    -0.09033055     1.91991169     0.00109135     0.00053719     0.00077796
H        -0.95653391     0.00671352     1.90205265     0.00034786     0.00015997     0.00028100
H        -1.01920061     0.17334683    -0.57774802    -0.00015726     0.00066747    -0.00051382
     6
  Step:    35            Position(A)                                  Velocity(au)
C        -0.04052767    -0.00867351    -0.13763569     0.00004492    -0.00004916    -0.00060268
N        -0.04328167    -0.05798790     1.42657001    -0.00011306    -0.00007477     0.00051293
H         0.96953287     0.14196683    -0.53915901    -0.00013682     0.00022649    -0.00044995
H         0.87665481    -0.08724579     1.92415253     0.00100844     0.00056933     0.00073539
H        -0.95459909     0.00754516     1.90364660     0.00033928     0.00013679     0.00029302
H        -1.02013309     0.17713935    -0.58065065    -0.00017503     0.00069229    -0.00052474
     6
  Step:    36            Position(A)                                  Velocity(au)
C        -0.04026750    -0.00894907    -0.14090235     0.00004797    -0.00004967    -0.00056732
N        -0.04389620    -0.05840611     1.42936558    -0.00010617    -0.00007505     0.00048851
H         0.96877080     0.14315545    -0.54177399    -0.00013351     0.00019833    -0.00048844
H         0.88202486    -0.08397306     1.92812353     0.00090726     0.00060506     0.00068271
H        -0.95274533     0.00824104     1.90532470     0.00031955     0.00011086     0.00031111
H        -1.02115510     0.18107736    -0.58360756    -0.00018958     0.00072051    -0.00053369
     6
  Step:    37            Position(A)                                  Velocity(au)
C        -0.03999217    -0.00922797    -0.14396877     0.00005044    -0.00005046    -0.00053098
N        -0.04446683    -0.05882567     1.43202331    -0.00009763    -0.00007526     0.00046360
H         0.96804250     0.14418079    -0.54461153    -0.00012451     0.00016779    -0.00053079
H         0.88678277    -0.08049138     1.93177380     0.00079176     0.00064501     0.00062200
H        -0.95103188     0.00878274     1.90711959     0.00028992     0.00008079     0.00033491
H        -1.02224939     0.18518253    -0.58660834    -0.00020157     0.00075358    -0.00054126
     6
  Step:    38            Position(A)                                  Velocity(au)
C        -0.03970463    -0.00951212    -0.14682740     0.00005245    -0.00005173    -0.00049244
N        -0.04498559    -0.05924594     1.43453872    -0.00008790    -0.00007527     0.00043727
H         0.96738142     0.14502775    -0.54769684    -0.00010866     0.00013427    -0.00057911
H         0.89085978    -0.07677562     1.93506420     0.00066594     0.00068998     0.00055534
H        -0.94951028     0.00914254     1.90906180     0.00025179     0.00004451     0.00036410
H        -1.02340429     0.18948628    -0.58964731    -0.00021263     0.00079372    -0.00054888
     6
  Step:    39            Position(A)                                  Velocity(au)
C        -0.03940714    -0.00980490    -0.14946093     0.00005411    -0.00005389    -0.00044884
N        -0.04544717    -0.05966521     1.43690017    -0.00007744    -0.00007480     0.00040746
H         0.96683063     0.14567830    -0.55107037    -0.00008289     0.00009805    -0.00063737
H         0.89420995    -0.07279611     1.93796748     0.00053385     0.00074014     0.00048495
H        -0.94822372     0.00927916     1.91118041     0.00020658    -0.00000050     0.00039859
H        -1.02462079     0.19403485    -0.59272992    -0.00022629     0.00084394    -0.00055992
     6
  Step:    40            Position(A)                                  Velocity(au)
C        -0.03910144    -0.01011276    -0.15183040     0.00005533    -0.00005768    -0.00039477
N        -0.04584872    -0.06007973     1.43908043    -0.00006651    -0.00007336     0.00037029
H         0.96645750     0.14612062    -0.55480127    -0.00004080     0.00006370    -0.00071168
H         0.89681036    -0.06852568     1.94046963     0.00039925     0.00079175     0.00041353
H        -0.94720768     0.00913691     1.91350468     0.00015538    -0.00005442     0.00043843
H        -1.02592661     0.19889323    -0.59588846    -0.00024888     0.00090585    -0.00058183
     6
  Step:    41            Position(A)                                  Velocity(au)
C        -0.03879075    -0.01044747    -0.15385846     0.00005550    -0.00006382    -0.00032519
N        -0.04618809    -0.06048244     1.44102495    -0.00005491    -0.00007056     0.00032216
H         0.96637617     0.14638787    -0.55899798     0.00002381     0.00004421    -0.00080482
H         0.89865732    -0.06397647     1.94257395     0.00026414     0.00083221     0.00034419
H        -0.94649293     0.00867290     1.91606429     0.00009907    -0.00010787     0.00048265
H        -1.02739313     0.20412543    -0.59921112    -0.00028524     0.00097238    -0.00062381
     6
  Step:    42            Position(A)                                  Velocity(au)
C        -0.03848366    -0.01082315    -0.15545037     0.00006108    -0.00008159    -0.00027546
N        -0.04645998    -0.06086513     1.44266659    -0.00004786    -0.00007563     0.00030055
H         0.96672252     0.14661270    -0.56376024     0.00012108     0.00005896    -0.00103104
H         0.89975066    -0.05926178     1.94430102     0.00014566     0.00096192     0.00031625
H        -0.94610488     0.00793613     1.91887736     0.00004502    -0.00016450     0.00059910
H        -1.02910183     0.20971749    -0.60283254    -0.00037451     0.00116689    -0.00077855
     6
  Step:    43            Position(A)                                  Velocity(au)
C        -0.03816255    -0.01127258    -0.15693236     0.00005513    -0.00007968    -0.00026035
N        -0.04667808    -0.06129111     1.44430235    -0.00003162    -0.00007766     0.00028955
H         0.96740811     0.14706103    -0.56947259     0.00011862     0.00008722    -0.00102314
H         0.90012200    -0.05402456     1.94585940    -0.00000859     0.00093661     0.00024337
H        -0.94600790     0.00720168     1.92226869    -0.00000720    -0.00011398     0.00062015
H        -1.03105122     0.21604159    -0.60714159    -0.00032025     0.00111895    -0.00076172
     6
  Step:    44            Position(A)                                  Velocity(au)
C        -0.03787071    -0.01170918    -0.15834533     0.00005035    -0.00007741    -0.00024829
N        -0.04681161    -0.06172871     1.44588621    -0.00001736    -0.00007970     0.00028034
H         0.96804152     0.14758248    -0.57513690     0.00010632     0.00009139    -0.00101663
H         0.89965519    -0.04884729     1.94700716    -0.00015480     0.00093565     0.00017031
H        -0.94618491     0.00666871     1.92577300    -0.00005337    -0.00008792     0.00064010
H        -1.03266283     0.22215946    -0.61130231    -0.00025684     0.00109087    -0.00073092
     6