 Fermi distribution function

Calculation with static geometry


********************************************************************************
 iSCC Total electronic   Diff electronic      SCC error    
   10   -0.53889444E+01   -0.19122481E-11    0.30473026E-06
********************************************************************************

 Total charge:     1.00000000

 Atomic gross charges (e)
 Atom           Charge
    1       0.17510936
    2      -0.07911830
    3       0.13370374
    4       0.27638060
    5       0.28445064
    6       0.20947396

Nr. of electrons (up):     12.00000000
Atom populations (up)
 Atom       Population
    1       3.82489064
    2       5.07911830
    3       0.86629626
    4       0.72361940
    5       0.71554936
    6       0.79052604

l-shell populations (up)
 Atom Sh.   l       Population
    1   1   0       1.32087342
    1   2   1       2.50401723
    2   1   0       1.42547724
    2   2   1       3.65364106
    3   1   0       0.86629626
    4   1   0       0.72361940
    5   1   0       0.71554936
    6   1   0       0.79052604

Orbital populations (up)
 Atom Sh.   l   m       Population  Label
    1   1   0   0       1.32087342  s
    1   2   1  -1       0.57441321  p_y
    1   2   1   0       0.88511602  p_z
    1   2   1   1       1.04448800  p_x
    2   1   0   0       1.42547724  s
    2   2   1  -1       1.28419621  p_y
    2   2   1   0       1.10686971  p_z
    2   2   1   1       1.26257514  p_x
    3   1   0   0       0.86629626  s
    4   1   0   0       0.72361940  s
    5   1   0   0       0.71554936  s
    6   1   0   0       0.79052604  s

Fermi level:                        -0.4943262614 H          -13.4513 eV
Band energy:                        -8.9011699491 H         -242.2132 eV
TS:                                  0.0000000000 H            0.0000 eV
Band free energy (E-TS):            -8.9011699491 H         -242.2132 eV
Extrapolated E(0K):                 -8.9011699491 H         -242.2132 eV
Input / Output electrons (q):     12.0000000000     12.0000000000

Energy H0:                          -5.5222004770 H         -150.2667 eV
Energy SCC:                          0.1332560352 H            3.6261 eV
Total Electronic energy:            -5.3889444418 H         -146.6406 eV
Repulsive energy:                    0.1903209527 H            5.1789 eV
Total energy:                       -5.1986234892 H         -141.4617 eV
Extrapolated to 0:                  -5.1986234892 H         -141.4617 eV
Total Mermin free energy:           -5.1986234892 H         -141.4617 eV
Force related energy:               -5.1986234892 H         -141.4617 eV

SCC converged

Excitation Energy:                   0.1070421400 H            2.9128 eV

Total Forces
    1     -0.002492464858     -0.021666241705      0.033715213803
    2     -0.010594930499      0.020245695424     -0.040343095823
    3     -0.002779755182      0.010041788119      0.002323020634
    4     -0.001634559488     -0.008669063148      0.003985282446
    5      0.012139289686      0.001603253549      0.003592504793
    6      0.005362420341     -0.001555432239     -0.003272925853

Maximal derivative component:        0.403431E-01 au


