|===============================================================================
|
|  DFTB+ release 20.1
|
|  Copyright (C) 2006 - 2020  DFTB+ developers group
|
|===============================================================================
|
|  When publishing results obtained with DFTB+, please cite the following
|  reference:
|
|  * DFTB+, a software package for efficient approximate density functional
|    theory based atomistic simulations, J. Chem. Phys. 152, 124101 (2020).
|    [doi: 10.1063/1.5143190]
|
|  You should also cite additional publications crediting the parametrization
|  data you use. Please consult the documentation of the SK-files for the
|  references.
|
|===============================================================================

Reading input file 'dftb_in.hsd'
Parser version: 8

--------------------------------------------------------------------------------
Reading SK-files:
Done.


Processed input in HSD format written to 'dftb_pin.hsd'

Starting initialization...
--------------------------------------------------------------------------------
WARNING!
-> Excited state forces are not implemented yet for fractional occupations, kT=  0.3158E-02K
OpenMP threads:              1
Chosen random seed:          506120932
Mode:                        Static calculation
Self consistent charges:     Yes
SCC-tolerance:                 0.100000E-05
Max. scc iterations:                    100
Shell resolved Hubbard:      No
Spin polarisation:           No
Nr. of up electrons:             6.000000
Nr. of down electrons:           6.000000
Periodic boundaries:         No
Electronic solver:           Relatively robust
Mixer:                       Broyden mixer
Mixing parameter:                  0.200000
Maximal SCC-cycles:                     100
Nr. of chrg. vec. in memory:              0
Electronic temperature:        0.100000E-07 H      0.272114E-06 eV
Initial charges:             Set automatically (system chrg:   0.100E+01)
Included shells:             C:  s, p
                             N:  s, p
                             H:  s
Extra options:
                             Mulliken analysis
                             Force calculation
Force type                   original
                             Eigenvector printing

--------------------------------------------------------------------------------

***  Geometry step: 0

 iSCC Total electronic   Diff electronic      SCC error    
    1   -0.53812350E+01    0.00000000E+00    0.70311738E+00
    2   -0.53857238E+01   -0.44887948E-02    0.47291270E+00
    3   -0.53885546E+01   -0.28308444E-02    0.91397993E-01
    4   -0.53888962E+01   -0.34153180E-03    0.38595980E-01
    5   -0.53889436E+01   -0.47454848E-04    0.76764229E-02
    6   -0.53889444E+01   -0.77051696E-06    0.14501430E-02
    7   -0.53889444E+01   -0.47388984E-07    0.81633797E-04
    8   -0.53889444E+01   -0.45918913E-09    0.37758884E-04
    9   -0.53889444E+01   -0.59724670E-10    0.53178711E-05
   10   -0.53889444E+01   -0.19122481E-11    0.30473026E-06
>> Charges saved for restart in charges.bin

Total Energy:                       -5.0915813492 H         -138.5490 eV
Extrapolated to 0:                  -5.1986234892 H         -141.4617 eV
Total Mermin free energy:           -5.0915813492 H         -138.5490 eV
Force related energy:               -5.1986234892 H         -141.4617 eV

--------------------------------------------------------------------------------
DFTB+ running times                          cpu [s]             wall clock [s]
--------------------------------------------------------------------------------
SCC                                    +     0.01  ( 46.5%)      0.07  ( 74.7%)
Post-SCC processing                    +     0.01  ( 47.5%)      0.02  ( 20.9%)
--------------------------------------------------------------------------------
Missing                                +     0.00  (  6.0%)      0.00  (  4.4%)
Total                                  =     0.02  (100.0%)      0.09  (100.0%)
--------------------------------------------------------------------------------
