     6
  Step:   300            Position(A)                                  Velocity(au)
C        -0.03764272     0.00833122     0.02910792     0.00000142    -0.00000604     0.00023228
N        -0.04260197    -0.04994251     1.28956292     0.00000002     0.00000396    -0.00014439
H         0.87099508    -0.00741546    -0.56935226    -0.00008481     0.00130080    -0.00042252
H         0.79471848    -0.08567727     1.88523009    -0.00010542    -0.00138672     0.00003982
H        -0.88951576    -0.06017634     1.87119314     0.00010633     0.00140466     0.00013930
H        -0.94856208     0.07824697    -0.56211042     0.00006664    -0.00130173    -0.00051786
