     6
  Step:     0            Position(A)                                  Velocity(au)
C        -0.03771173     0.02104479     0.00571995    -0.00005973    -0.00012443     0.00004331
N        -0.04947204    -0.05225582     1.31187151     0.00021473     0.00012279    -0.00004890
H         0.96318590    -0.02022775    -0.52401322     0.00068955     0.00048455    -0.00012738
H         0.85963882    -0.16057874     1.78802440    -0.00181361    -0.00051966    -0.00044732
H        -0.91992900    -0.06633042     1.86582140    -0.00086392    -0.00046404     0.00105927
H        -0.97897706     0.05275295    -0.53617900    -0.00028421     0.00027554    -0.00032110
     6
  Step:     1            Position(A)                                  Velocity(au)
C        -0.03801653     0.02036849     0.00588762    -0.00005193    -0.00012291     0.00001745
N        -0.04829341    -0.05158681     1.31167571     0.00021373     0.00012206    -0.00002257
H         0.96682039    -0.01756352    -0.52479956     0.00063539     0.00048997    -0.00015783
H         0.84969019    -0.16344430     1.78572875    -0.00180247    -0.00053123    -0.00038076
H        -0.92462168    -0.06887676     1.87168946    -0.00083722    -0.00046680     0.00107489
H        -0.98071664     0.05426277    -0.53824200    -0.00034683     0.00027653    -0.00043059
     6
  Step:     2            Position(A)                                  Velocity(au)
C        -0.03827988     0.01970020     0.00591080    -0.00004463    -0.00012145    -0.00000941
N        -0.04713393    -0.05092056     1.31162465     0.00020768     0.00012176     0.00000382
H         0.97013686    -0.01486766    -0.52573981     0.00057342     0.00049588    -0.00018377
H         0.83992025    -0.16639027     1.78385895    -0.00174702    -0.00054913    -0.00029116
H        -0.92908797    -0.07143709     1.87758045    -0.00078206    -0.00046886     0.00106796
H        -0.98277127     0.05577810    -0.54088955    -0.00039855     0.00027738    -0.00053402
     6
  Step:     3            Position(A)                                  Velocity(au)
C        -0.03850483     0.01903957     0.00578466    -0.00003794    -0.00012008    -0.00003701
N        -0.04602096    -0.05025456     1.31171754     0.00019678     0.00012194     0.00002987
H         0.97309474    -0.01213760    -0.52681033     0.00050455     0.00050229    -0.00020558
H         0.83057422    -0.16945294     1.78254284    -0.00164734    -0.00057392    -0.00017844
H        -0.93317899    -0.07400706     1.88337517    -0.00070135    -0.00047011     0.00104035
H        -0.98507765     0.05729785    -0.54408524    -0.00043823     0.00027800    -0.00063028
     6
  Step:     4            Position(A)                                  Velocity(au)
C        -0.03869513     0.01838613     0.00550575    -0.00003199    -0.00011881    -0.00006512
N        -0.04498041    -0.04958603     1.31195149     0.00018137     0.00012267     0.00005522
H         0.97565848    -0.00937079    -0.52798966     0.00042970     0.00050921    -0.00022371
H         0.82189217    -0.17267114     1.78190616    -0.00150537    -0.00060596    -0.00004348
H        -0.93676331    -0.07658188     1.88896577    -0.00059844    -0.00047051     0.00099431
H        -0.98756717     0.05882049    -0.54778720    -0.00046513     0.00027834    -0.00071856
     6
  Step:     5            Position(A)                                  Velocity(au)
C        -0.03885492     0.01773928     0.00507200    -0.00002682    -0.00011767    -0.00009347
N        -0.04403589    -0.04891200     1.31232192     0.00016195     0.00012396     0.00007964
H         0.97779767    -0.00656452    -0.52925872     0.00034981     0.00051669    -0.00023859
H         0.81409851    -0.17608497     1.78206692    -0.00132498    -0.00064534     0.00011174
H        -0.93972872    -0.07915661     1.89425753    -0.00047690    -0.00047006     0.00093231
H        -0.99016829     0.06034414    -0.55194962    -0.00047892     0.00027833    -0.00079830
     6
  Step:     6            Position(A)                                  Velocity(au)
C        -0.03898863     0.01709827     0.00448273    -0.00002246    -0.00011669    -0.00012184
N        -0.04320789    -0.04822937     1.31282310     0.00013916     0.00012582     0.00010296
H         0.97948696    -0.00371584    -0.53060094     0.00026575     0.00052478    -0.00025070
H         0.80739088    -0.17973409     1.78312916    -0.00111195    -0.00069179     0.00028417
H        -0.94198276    -0.08172646     1.89916952    -0.00034029    -0.00046880     0.00085688
H        -0.99280870     0.06186665    -0.55652428    -0.00047963     0.00027793    -0.00086920
     6
  Step:     7            Position(A)                                  Velocity(au)
C        -0.03910069     0.01646223     0.00373861    -0.00001890    -0.00011589    -0.00014998
N        -0.04251302    -0.04753509     1.31344865     0.00011373     0.00012823     0.00012512
H         0.98070590    -0.00082155    -0.53200228     0.00017837     0.00053350    -0.00026049
H         0.80192972    -0.18365572     1.78517680    -0.00087380    -0.00074468     0.00046965
H        -0.94345273    -0.08428699     1.90363494    -0.00019214    -0.00046680     0.00077054
H        -0.99541723     0.06338571    -0.56146186    -0.00046762     0.00027711    -0.00093114
     6
  Step:     8            Position(A)                                  Velocity(au)
C        -0.03919543     0.01583016     0.00284160    -0.00001611    -0.00011529    -0.00017766
N        -0.04196345    -0.04682632     1.31419214     0.00008652     0.00013112     0.00014614
H         0.98143868     0.00212177    -0.53345127     0.00008849     0.00054288    -0.00026842
H         0.79782966    -0.18788241     1.78826809    -0.00061941    -0.00080293     0.00066308
H        -0.94408519    -0.08683421     1.90760086    -0.00003588    -0.00046412     0.00067575
H        -0.99792541     0.06489883    -0.56671289    -0.00044344     0.00027583    -0.00098413
     6
  Step:     9            Position(A)                                  Velocity(au)
C        -0.03927694     0.01520097     0.00179493    -0.00001404    -0.00011488    -0.00020464
N        -0.04156652    -0.04610059     1.31504744     0.00005841     0.00013442     0.00016610
H         0.98167397     0.00511763    -0.53493888    -0.00000309     0.00055288    -0.00027491
H         0.79515324    -0.19243990     1.79243102    -0.00035856    -0.00086507     0.00085863
H        -0.94384531    -0.08936461     1.91102779     0.00012513    -0.00046084     0.00057488
H        -1.00026853     0.06640334    -0.57222839    -0.00040783     0.00027403    -0.00102823
     6
  Step:    10            Position(A)                                  Velocity(au)
C        -0.03934902     0.01457355     0.00060317    -0.00001263    -0.00011467    -0.00023065
N        -0.04132453    -0.04535599     1.31600898     0.00003033     0.00013799     0.00018509
H         0.98140487     0.00816939    -0.53645841    -0.00009553     0.00056343    -0.00028037
H         0.79390757    -0.19734501     1.79766020    -0.00010140    -0.00092930     0.00105000
H        -0.94271642    -0.09187510     1.91388918     0.00028760    -0.00045700     0.00047026
H        -1.00238643     0.06789635    -0.57796013    -0.00036167     0.00027167    -0.00106354
     6
  Step:    11            Position(A)                                  Velocity(au)
C        -0.03941506     0.01394681    -0.00072775    -0.00001180    -0.00011463    -0.00025541
N        -0.04123476    -0.04459131     1.31707184     0.00000319     0.00014170     0.00020321
H         0.98062911     0.01128004    -0.53800538    -0.00018793     0.00057441    -0.00028516
H         0.79404419    -0.20260397     1.80391530     0.00014215    -0.00099351     0.00123077
H        -0.94069978    -0.09436301     1.91617117     0.00044814    -0.00045266     0.00036420
H        -1.00422425     0.06937468    -0.58386073    -0.00030598     0.00026867    -0.00109016
     6
  Step:    12            Position(A)                                  Velocity(au)
C        -0.03947809     0.01331975    -0.00219036    -0.00001149    -0.00011476    -0.00027862
N        -0.04128967    -0.04380618     1.31823155    -0.00002217     0.00014538     0.00022050
H         0.97934940     0.01445191    -0.53957730    -0.00027929     0.00058566    -0.00028963
H         0.79546229    -0.20821133     1.81112159     0.00036297    -0.00105546     0.00139475
H        -0.93781494    -0.09682603     1.91787258     0.00060330    -0.00044788     0.00025908
H        -1.00573306     0.07083485    -0.58988360    -0.00024190     0.00026495    -0.00110817
     6
  Step:    13            Position(A)                                  Velocity(au)
C        -0.03954074     0.01269148    -0.00377557    -0.00001162    -0.00011501    -0.00029996
N        -0.04147731    -0.04300106     1.31948381    -0.00004498     0.00014886     0.00023693
H         0.97757399     0.01768647    -0.54117362    -0.00036849     0.00059697    -0.00029412
H         0.79801471    -0.21414946     1.81917226     0.00055328    -0.00111289     0.00153634
H        -0.93410040    -0.09926227     1.91900517     0.00074944    -0.00044272     0.00015733
H        -1.00687037     0.07227296    -0.59598285    -0.00017069     0.00026045    -0.00111766
     6
  Step:    14            Position(A)                                  Velocity(au)
C        -0.03960526     0.01206128    -0.00547256    -0.00001213    -0.00011535    -0.00031908
N        -0.04178182    -0.04217728     1.32082406    -0.00006457     0.00015201     0.00025240
H         0.97531731     0.02098405    -0.54279557    -0.00045429     0.00060811    -0.00029892
H         0.80151642    -0.22038884     1.82793252     0.00070702    -0.00116370     0.00165089
H        -0.92961440    -0.10167031     1.91959416     0.00088282    -0.00043728     0.00006153
H        -1.00760078     0.07368478    -0.60211326    -0.00009373     0.00025511    -0.00111875
     6
  Step:    15            Position(A)                                  Velocity(au)
C        -0.03967355     0.01142864    -0.00726868    -0.00001296    -0.00011575    -0.00033565
N        -0.04218414    -0.04133697     1.32224695    -0.00008041     0.00015467     0.00026671
H         0.97260063     0.02434379    -0.54444604    -0.00053535     0.00061886    -0.00030434
H         0.80575482    -0.22688911     1.83724539     0.00082014    -0.00120604     0.00173493
H        -0.92443569    -0.10404942     1.91967874     0.00099962    -0.00043172    -0.00002572
H        -1.00789649     0.07506574    -0.60823039    -0.00001251     0.00024886    -0.00111162
     6
  Step:    16            Position(A)                                  Velocity(au)
C        -0.03974724     0.01079324    -0.00914953    -0.00001406    -0.00011617    -0.00034936
N        -0.04266271    -0.04048289     1.32374588    -0.00009213     0.00015675     0.00027962
H         0.96945258     0.02776356    -0.54612957    -0.00061029     0.00062899    -0.00031066
H         0.81050090    -0.23360087     1.84693846     0.00089066    -0.00123848     0.00178635
H        -0.91866374    -0.10639975     1.91931237     0.00109608    -0.00042623    -0.00010180
H        -1.00773779     0.07641103    -0.61429089     0.00007142     0.00024170    -0.00109655
     6
  Step:    17            Position(A)                                  Velocity(au)
C        -0.03982771     0.01015494    -0.01109907    -0.00001539    -0.00011658    -0.00035995
N        -0.04319426    -0.03961830     1.32531268    -0.00009949     0.00015819     0.00029080
H         0.96590940     0.03124009    -0.54785216    -0.00067771     0.00063833    -0.00031816
H         0.81552000    -0.24046783     1.85683103     0.00091858    -0.00126003     0.00180441
H        -0.91241822    -0.10872265     1.91856264     0.00116871    -0.00042107    -0.00016419
H        -1.00711348     0.07771570    -0.62025297     0.00015642     0.00023361    -0.00107394
     6
  Step:    18            Position(A)                                  Velocity(au)
C        -0.03991614     0.00951382    -0.01309991    -0.00001692    -0.00011695    -0.00036722
N        -0.04375461    -0.03874674     1.32693737    -0.00010241     0.00015896     0.00029995
H         0.96201483     0.03476914    -0.54962126    -0.00073632     0.00064675    -0.00032707
H         0.82058217    -0.24742945     1.86674148     0.00090574    -0.00127024     0.00178971
H        -0.90583735    -0.11102094     1.91751047     0.00121446    -0.00041654    -0.00021062
H        -1.00602113     0.07897485    -0.62607718     0.00024087     0.00022464    -0.00104437
     6
  Step:    19            Position(A)                                  Velocity(au)
C        -0.04001356     0.00887003    -0.01513361    -0.00001861    -0.00011728    -0.00037104
N        -0.04431942    -0.03787182     1.32860812    -0.00010094     0.00015907     0.00030676
H         0.95781965     0.03834579    -0.55144556    -0.00078494     0.00065418    -0.00033763
H         0.82547107    -0.25442361     1.87649404     0.00085531    -0.00126913     0.00174398
H        -0.89907529    -0.11329910     1.91624861     0.00123097    -0.00041296    -0.00023925
H        -1.00446711     0.08018373    -0.63172721     0.00032317     0.00021484    -0.00100856
     6
  Step:    20            Position(A)                                  Velocity(au)
C        -0.04012089     0.00822384    -0.01718111    -0.00002047    -0.00011755    -0.00037138
N        -0.04486486    -0.03699703     1.33031151    -0.00009526     0.00015857     0.00031099
H         0.95338093     0.04196476    -0.55333496    -0.00082262     0.00066064    -0.00035003
H         0.82999002    -0.26138911     1.88592418     0.00077163    -0.00125720     0.00166995
H        -0.89229737    -0.11556322     1.91487887     0.00121679    -0.00041066    -0.00024878
H        -1.00246640     0.08133801    -0.63717075     0.00040185     0.00020432    -0.00096736
     6
  Step:    21            Position(A)                                  Velocity(au)
C        -0.04023897     0.00757556    -0.01922331    -0.00002247    -0.00011777    -0.00036829
N        -0.04536840    -0.03612555     1.33203280    -0.00008566     0.00015755     0.00031248
H         0.94876066     0.04562101    -0.55530021    -0.00084869     0.00066624    -0.00036442
H         0.83396854    -0.26826827     1.89488402     0.00065981    -0.00123535     0.00157107
H        -0.88567564    -0.11782139     1.91350900     0.00117146    -0.00040999    -0.00023860
H        -1.00004181     0.08243371    -0.64238014     0.00047557     0.00019315    -0.00092175
     6
  Step:    22            Position(A)                                  Velocity(au)
C        -0.04036856     0.00692543    -0.02124148    -0.00002459    -0.00011796    -0.00036192
N        -0.04580930    -0.03526010     1.33375653    -0.00007256     0.00015608     0.00031116
H         0.94402422     0.04931000    -0.55735269    -0.00086275     0.00067112    -0.00038089
H         0.83726434    -0.27500877     1.90324517     0.00052516    -0.00120480     0.00145120
H        -0.87938212    -0.12008329     1.91224832     0.00109572    -0.00041119    -0.00020892
H        -0.99722323     0.08346745    -0.64733297     0.00054321     0.00018146    -0.00087274
     6
  Step:    23            Position(A)                                  Velocity(au)
C        -0.04051039     0.00627367    -0.02321778    -0.00002684    -0.00011813    -0.00035248
N        -0.04616918    -0.03440286     1.33546706    -0.00005640     0.00015430     0.00030709
H         0.93923860     0.05302805    -0.55950399    -0.00086477     0.00067550    -0.00039945
H         0.83976460    -0.28156543     1.91090072     0.00037302    -0.00116694     0.00131437
H        -0.87358239    -0.12235965     1.91120324     0.00099156    -0.00041444    -0.00016081
H        -0.99404647     0.08443649    -0.65201247     0.00060384     0.00016938    -0.00082143
     6
  Step:    24            Position(A)                                  Velocity(au)
C        -0.04066506     0.00562033    -0.02513550    -0.00002919    -0.00011833    -0.00034021
N        -0.04643243    -0.03355546     1.33714916    -0.00003775     0.00015230     0.00030041
H         0.93447064     0.05677269    -0.56176561    -0.00085498     0.00067965    -0.00042005
H         0.84138527    -0.28790068     1.91776580     0.00020847    -0.00112327     0.00116457
H        -0.86842775    -0.12466189     1.91047179     0.00086222    -0.00041979    -0.00009625
H        -0.99055224     0.08533874    -0.65640777     0.00065675     0.00015703    -0.00076886
     6
  Step:    25            Position(A)                                  Velocity(au)
C        -0.04083311     0.00496533    -0.02697947    -0.00003162    -0.00011857    -0.00032543
N        -0.04658660    -0.03271892     1.33878866    -0.00001719     0.00015018     0.00029136
H         0.92978518     0.06054284    -0.56414848    -0.00083394     0.00068383    -0.00044257
H         0.84206958    -0.29398534     1.92377720     0.00003618    -0.00107534     0.00100559
H        -0.86404893    -0.12700122     1.91013898     0.00071195    -0.00042712    -0.00001800
H        -0.98678484     0.08617274    -0.66051371     0.00070146     0.00014450    -0.00071606
     6
  Step:    26            Position(A)                                  Velocity(au)
C        -0.04101493     0.00430842    -0.02873617    -0.00003411    -0.00011889    -0.00030843
N        -0.04662258    -0.03189375     1.34037291     0.00000469     0.00014804     0.00028025
H         0.92524351     0.06433894    -0.56666244    -0.00080242     0.00068834    -0.00046677
H         0.84178557    -0.29979872     1.92889214    -0.00013966    -0.00102464     0.00084093
H        -0.86055041    -0.12938776     1.91027257     0.00054584    -0.00043616     0.00007053
H        -0.98279100     0.08693758    -0.66433057     0.00073765     0.00013188    -0.00066392
     6
  Step:    27            Position(A)                                  Velocity(au)
C        -0.04121076     0.00364920    -0.03039388    -0.00003663    -0.00011931    -0.00028954
N        -0.04653472    -0.03108002     1.34189116     0.00002724     0.00014595     0.00026745
H         0.92090205     0.06816297    -0.56931584    -0.00076141     0.00069343    -0.00049235
H         0.84052354    -0.30532851     1.93308664    -0.00031533    -0.00097265     0.00067375
H        -0.85800633    -0.13182970     1.91091975     0.00036955    -0.00044649     0.00016546
H        -0.97861877     0.08763275    -0.66786352     0.00076521     0.00011924    -0.00061324
     6
  Step:    28            Position(A)                                  Velocity(au)
C        -0.04142064     0.00298708    -0.03194266    -0.00003914    -0.00011987    -0.00026906
N        -0.04632090    -0.03027738     1.34333477     0.00004986     0.00014397     0.00025332
H         0.91681131     0.07201831    -0.57211502    -0.00071202     0.00069934    -0.00051890
H         0.83829340    -0.31057035     1.93635363    -0.00048760    -0.00092072     0.00050685
H        -0.85645784    -0.13433243     1.91210495     0.00018904    -0.00045753     0.00026263
H        -0.97431671     0.08825805    -0.67112195     0.00078411     0.00010658    -0.00056471
     6
  Step:    29            Position(A)                                  Velocity(au)
C        -0.04164435     0.00232140    -0.03337427    -0.00004159    -0.00012057    -0.00024727
N        -0.04598237    -0.02948521     1.34469724     0.00007197     0.00014214     0.00023825
H         0.91301493     0.07590958    -0.57506378    -0.00065553     0.00070625    -0.00054592
H         0.83512235    -0.31552739     1.93870110    -0.00065357    -0.00087012     0.00034272
H        -0.85591234    -0.13689786     1.91382893     0.00001024    -0.00046862     0.00035783
H        -0.96993316     0.08881340    -0.67411885     0.00079443     0.00009394    -0.00051886
     6
  Step:    30            Position(A)                                  Velocity(au)
C        -0.04188139     0.00165136    -0.03468205    -0.00004392    -0.00012143    -0.00022445
N        -0.04552364    -0.02870266     1.34597415     0.00009299     0.00014050     0.00022257
H         0.90954910     0.07984238    -0.57816291    -0.00059330     0.00071431    -0.00057282
H         0.83105292    -0.32020983     1.94015045    -0.00081066    -0.00082206     0.00018360
H        -0.85634445    -0.13952393     1.91606914    -0.00016124    -0.00047899     0.00044704
H        -0.96551573     0.08929871    -0.67687006     0.00079635     0.00008127    -0.00047612
     6
  Step:    31            Position(A)                                  Velocity(au)
C        -0.04213091     0.00097615    -0.03586081    -0.00004607    -0.00012245    -0.00020082
N        -0.04495218    -0.02792870     1.34716292     0.00011243     0.00013907     0.00020657
H         0.90644209     0.08382302    -0.58140969    -0.00052674     0.00072359    -0.00059892
H         0.82614153    -0.32463452     1.94073515    -0.00095646    -0.00077768     0.00003154
H        -0.85769862    -0.14220438     1.91878145    -0.00032033    -0.00048790     0.00052660
H        -0.96111087     0.08971377    -0.67939354     0.00079008     0.00006855    -0.00043679
     6
  Step:    32            Position(A)                                  Velocity(au)
C        -0.04239173     0.00029494    -0.03690671    -0.00004797    -0.00012362    -0.00017662
N        -0.04427811    -0.02716213     1.34826251     0.00012986     0.00013787     0.00019051
H         0.90371400     0.08785819    -0.58479765    -0.00045732     0.00073414    -0.00062353
H         0.82045750    -0.32882473     1.94049979    -0.00108873    -0.00073809    -0.00011158
H        -0.85989303    -0.14492877     1.92190272    -0.00046277    -0.00049460     0.00059341
H        -0.95676341     0.09005808    -0.68170874     0.00077594     0.00005571    -0.00040107
     6
  Step:    33            Position(A)                                  Velocity(au)
C        -0.04266227    -0.00039307    -0.03781711    -0.00004956    -0.00012493    -0.00015204
N        -0.04351383    -0.02640162     1.34927307     0.00014488     0.00013694     0.00017455
H         0.90137662     0.09195471    -0.58831622    -0.00038651     0.00074595    -0.00064590
H         0.81408232    -0.33280996     1.93949926    -0.00120532    -0.00070442    -0.00024394
H        -0.86282449    -0.14768278     1.92535433    -0.00058520    -0.00049843     0.00064502
H        -0.95251624     0.09033083    -0.68383593     0.00075430     0.00004268    -0.00036903
     6
  Step:    34            Position(A)                                  Velocity(au)
C        -0.04294062    -0.00108863    -0.03859054    -0.00005078    -0.00012638    -0.00012730
N        -0.04267359    -0.02564561     1.35019561     0.00015721     0.00013631     0.00015882
H         0.89943354     0.09611933    -0.59195076    -0.00031576     0.00075898    -0.00066529
H         0.80710904    -0.33662593     1.93779819    -0.00130419    -0.00067778    -0.00036386
H        -0.86637391    -0.15044874     1.92904613    -0.00068524    -0.00049885     0.00067972
H        -0.94840985     0.09053074    -0.68579564     0.00072561     0.00002938    -0.00034069
     6
  Step:    35            Position(A)                                  Velocity(au)
C        -0.04322450    -0.00179240    -0.03922662    -0.00005156    -0.00012795    -0.00010257
N        -0.04177310    -0.02489233     1.35103160     0.00016662     0.00013604     0.00014337
H         0.89788034     0.10035855    -0.59568260    -0.00024648     0.00077319    -0.00068099
H         0.79964168    -0.34031463     1.93547045    -0.00138344    -0.00065930    -0.00046971
H        -0.87041183    -0.15320628     1.93288051    -0.00076152    -0.00049543     0.00069652
H        -0.94448194     0.09065608    -0.68760817     0.00069042     0.00001570    -0.00031594
     6
  Step:    36            Position(A)                                  Velocity(au)
C        -0.04351138    -0.00250499    -0.03972593    -0.00005186    -0.00012962    -0.00007802
N        -0.04082910    -0.02413965     1.35178270     0.00017297     0.00013619     0.00012820
H         0.89670499     0.10467852    -0.59948930    -0.00017998     0.00078852    -0.00069237
H         0.79179449    -0.34392437     1.93259848    -0.00144132    -0.00065013    -0.00056005
H        -0.87480394    -0.15593317     1.93675654    -0.00081362    -0.00048793     0.00069515
H        -0.94076693     0.09070457    -0.68929307     0.00064935     0.00000156    -0.00029462
     6
  Step:    37            Position(A)                                  Velocity(au)
C        -0.04379847    -0.00322690    -0.04009004    -0.00005165    -0.00013138    -0.00005382
N        -0.03985889    -0.02338512     1.35245044     0.00017618     0.00013683     0.00011329
H         0.89588847     0.10908507    -0.60334510    -0.00011746     0.00080491    -0.00069888
H         0.78369055    -0.34750968     1.92927234    -0.00147643    -0.00065139    -0.00063363
H        -0.87941618    -0.15860616     1.94057374    -0.00084197    -0.00047621     0.00067599
H        -0.93729555     0.09067334    -0.69086874     0.00060310    -0.00001317    -0.00027649
     6
  Step:    38            Position(A)                                  Velocity(au)
C        -0.04408279    -0.00395857    -0.04032137    -0.00005089    -0.00013324    -0.00003012
N        -0.03887996    -0.02262582     1.35303610     0.00017626     0.00013805     0.00009857
H         0.89540546     0.11358367    -0.60722141    -0.00005996     0.00082232    -0.00070006
H         0.77545988    -0.35113103     1.92558823    -0.00148770    -0.00066411    -0.00068949
H        -0.88411914    -0.16120174     1.94423541    -0.00084770    -0.00046030     0.00063993
H        -0.93409445     0.09055889    -0.69235200     0.00055243    -0.00002860    -0.00026123
     6
  Step:    39            Position(A)                                  Velocity(au)
C        -0.04436129    -0.00470042    -0.04042311    -0.00004958    -0.00013516    -0.00000704
N        -0.03790954    -0.02185840     1.35354054     0.00017329     0.00013992     0.00008396
H         0.89522529     0.11817962    -0.61108746    -0.00000838     0.00084075    -0.00069558
H         0.76723726    -0.35485445     1.92164688    -0.00147452    -0.00068926    -0.00072701
H        -0.88879141    -0.16369686     1.94765113    -0.00083248    -0.00044033     0.00058827
H        -0.93118597     0.09035708    -0.69375778     0.00049811    -0.00004486    -0.00024847
     6
  Step:    40            Position(A)                                  Velocity(au)
C        -0.04463087    -0.00545278    -0.04039919    -0.00004771    -0.00013716     0.00001529
N        -0.03696429    -0.02107907     1.35396423     0.00016740     0.00014252     0.00006939
H         0.89531283     0.12287807    -0.61491095     0.00003659     0.00086019    -0.00068521
H         0.75915926    -0.35875074     1.91755126    -0.00143688    -0.00072763    -0.00074602
H        -0.89332208    -0.16606949     1.95073860    -0.00079834    -0.00041651     0.00052255
H        -0.92858787     0.09006298    -0.69509881     0.00044099    -0.00006210    -0.00023780
     6
  Step:    41            Position(A)                                  Velocity(au)
C        -0.04488850    -0.00621600    -0.04025413    -0.00004531    -0.00013924     0.00003678
N        -0.03605989    -0.02028364     1.35430724     0.00015879     0.00014592     0.00005480
H         0.89562956     0.12768421    -0.61865861     0.00007441     0.00088066    -0.00066881
H         0.75136056    -0.36289428     1.91340386    -0.00137543    -0.00077974    -0.00074685
H        -0.89761254    -0.16829901     1.95342502    -0.00074755    -0.00038910     0.00044454
H        -0.92631332     0.08967087    -0.69638531     0.00038186    -0.00008049    -0.00022874
     6
  Step:    42            Position(A)                                  Velocity(au)
C        -0.04513120    -0.00699039    -0.03999299    -0.00004238    -0.00014137     0.00005734
N        -0.03521074    -0.01946759     1.35456943     0.00014772     0.00015018     0.00004017
H         0.89613452     0.13260335    -0.62229678     0.00010471     0.00090218    -0.00064634
H         0.74397016    -0.36736161     1.90930366    -0.00129149    -0.00084587    -0.00073040
H        -0.90157744    -0.17036646     1.95564775    -0.00068250    -0.00035842     0.00035604
H        -0.92437089     0.08917413    -0.69762481     0.00032154    -0.00010019    -0.00022078
     6
  Step:    43            Position(A)                                  Velocity(au)
C        -0.04535617    -0.00777625    -0.03962127    -0.00003895    -0.00014357     0.00007690
N        -0.03442965    -0.01862623     1.35475055     0.00013448     0.00015530     0.00002549
H         0.89678512     0.13764096    -0.62579183     0.00012724     0.00092479    -0.00061780
H         0.73710724    -0.37222958     1.90534296    -0.00118719    -0.00092589    -0.00069814
H        -0.90514482    -0.17225465     1.95735435    -0.00060554    -0.00032475     0.00025884
H        -0.92276473     0.08856518    -0.69882197     0.00026078    -0.00012139    -0.00021341
     6
  Step:    44            Position(A)                                  Velocity(au)
C        -0.04556075    -0.00857385    -0.03914488    -0.00003504    -0.00014583     0.00009539
N        -0.03372754    -0.01775483     1.35485053     0.00011944     0.00016127     0.00001081
H         0.89753788     0.14280275    -0.62911047     0.00014188     0.00094854    -0.00058326
H         0.73087673    -0.37757315     1.90160393    -0.00106541    -0.00101925    -0.00065218
H        -0.90825583    -0.17394814     1.95850243    -0.00051891    -0.00028839     0.00015469
H        -0.92149479     0.08783535    -0.69997848     0.00020026    -0.00014432    -0.00020608
     6