     6
  Step:   300            Position(A)                                  Velocity(au)
C        -0.04790610     0.02173224     0.02741174     0.00000564     0.00002752     0.00005615
N        -0.02435973    -0.06121459     1.29439644     0.00001300    -0.00000532    -0.00004237
H         0.16605810     0.96024555    -0.51332748     0.00135068    -0.00023521     0.00030924
H        -0.12347651    -0.94591754     1.79853726     0.00145050    -0.00030093    -0.00031423
H        -0.10694344     0.75866234     1.91080333    -0.00159142     0.00017022    -0.00059583
H        -0.23922224    -0.85106736    -0.61799814    -0.00145764     0.00011191     0.00052049
