     6
  Step:     0            Position(A)                                  Velocity(au)
C        -0.03796559     0.01108103     0.01507666    -0.00001861     0.00012595    -0.00027069
N        -0.05016288    -0.04109730     1.30225469     0.00009535    -0.00004516     0.00022660
H         0.92118356    -0.03371316    -0.47521365    -0.00035707    -0.00038296     0.00023385
H         0.90692431    -0.16937063     1.83582138     0.00018135     0.00000790    -0.00056495
H        -0.88865388    -0.11727523     1.83663115    -0.00143443     0.00008307     0.00032191
H        -1.00291017     0.08964081    -0.58144132     0.00050693    -0.00058124     0.00008578
     6
  Step:     1            Position(A)                                  Velocity(au)
C        -0.03809792     0.01180805     0.01324652    -0.00002969     0.00013983    -0.00039687
N        -0.04956615    -0.04133850     1.30379543     0.00012126    -0.00004321     0.00033627
H         0.91950879    -0.03595938    -0.47411249    -0.00025281    -0.00043808     0.00016595
H         0.90731129    -0.16936966     1.83242887    -0.00003771    -0.00000784    -0.00067181
H        -0.89701126    -0.11702023     1.83866865    -0.00160176     0.00001269     0.00041283
H        -0.99998035     0.08631982    -0.58079044     0.00056105    -0.00063248     0.00014922
     6
  Step:     2            Position(A)                                  Velocity(au)
C        -0.03829041     0.01261075     0.01073493    -0.00004041     0.00015340    -0.00051876
N        -0.04883629    -0.04157001     1.30593343     0.00014364    -0.00004157     0.00044398
H         0.91841779    -0.03850572    -0.47339819    -0.00014475    -0.00049187     0.00009298
H         0.90651173    -0.16945643     1.82847178    -0.00024998    -0.00002434    -0.00076923
H        -0.90617703    -0.11713642     1.84114745    -0.00172701    -0.00005228     0.00048237
H        -0.99677237     0.08272153    -0.57980881     0.00060717    -0.00068174     0.00020572
     6
  Step:     3            Position(A)                                  Velocity(au)
C        -0.03854021     0.01348705     0.00756844    -0.00005038     0.00016632    -0.00063433
N        -0.04799390    -0.04179346     1.30865499     0.00016188    -0.00004015     0.00054782
H         0.91792447    -0.04134312    -0.47309482    -0.00003545    -0.00054303     0.00001648
H         0.90457515    -0.16963607     1.82400926    -0.00044995    -0.00004191    -0.00085343
H        -0.91591431    -0.11759243     1.84394850    -0.00180649    -0.00011106     0.00052957
H        -0.99333456     0.07885778    -0.57853869     0.00064273    -0.00072782     0.00025338
     6
  Step:     4            Position(A)                                  Velocity(au)
C        -0.03884238     0.01443307     0.00378465    -0.00005918     0.00017822    -0.00074120
N        -0.04706264    -0.04200998     1.31193579     0.00017538    -0.00003888     0.00064548
H         0.91802932    -0.04445560    -0.47321764     0.00007238    -0.00059015    -0.00006165
H         0.90158172    -0.16991562     1.81912080    -0.00063134    -0.00006087    -0.00092049
H        -0.92597054    -0.11835326     1.84694989    -0.00183784    -0.00016294     0.00055418
H        -0.98973002     0.07474688    -0.57703253     0.00066482    -0.00076936     0.00029027
     6
  Step:     5            Position(A)                                  Velocity(au)
C        -0.03918968     0.01544291    -0.00056596    -0.00006639     0.00018869    -0.00083678
N        -0.04606912    -0.04222013     1.31573890     0.00018367    -0.00003762     0.00073440
H         0.91871884    -0.04781978    -0.47377145     0.00017597    -0.00063180    -0.00013926
H         0.89764644    -0.17030414     1.81390721    -0.00078729    -0.00008159    -0.00096648
H        -0.93608404    -0.11938064     1.85003045    -0.00182032    -0.00020734     0.00055677
H        -0.98603844     0.07041428    -0.57535311     0.00067041    -0.00080501     0.00031453
     6
  Step:     6            Position(A)                                  Velocity(au)
C        -0.03957256     0.01650855    -0.00541921    -0.00007158     0.00019738    -0.00091853
N        -0.04504245    -0.04242372     1.32001357     0.00018634    -0.00003623     0.00081199
H         0.91996487    -0.05140490    -0.47474941     0.00027246    -0.00066668    -0.00021408
H         0.89292219    -0.17081299     1.80849038    -0.00091072    -0.00010443    -0.00098780
H        -0.94599247    -0.12063377     1.85307391    -0.00175501    -0.00024384     0.00053875
H        -0.98235614     0.06589247    -0.57357295     0.00065682    -0.00083355     0.00032462
     6
  Step:     7            Position(A)                                  Velocity(au)
C        -0.03997919     0.01762003    -0.01069745    -0.00007440     0.00020397    -0.00098428
N        -0.04401380    -0.04261975     1.32469523     0.00018317    -0.00003459     0.00087594
H         0.92172414    -0.05517335    -0.47613280     0.00035910    -0.00069371    -0.00028396
H         0.88760118    -0.17145601     1.80301172    -0.00099500    -0.00012978    -0.00098161
H        -0.95544200    -0.12207024     1.85597294    -0.00164511    -0.00027230     0.00050238
H        -0.97879368     0.06122018    -0.57177249     0.00062214    -0.00085408     0.00031952
     6
  Step:     8            Position(A)                                  Velocity(au)
C        -0.04039591     0.01876581    -0.01631187    -0.00007460     0.00020828    -0.00103261
N        -0.04301533    -0.04280646     1.32970725     0.00017422    -0.00003257     0.00092459
H         0.92393888    -0.05908196    -0.47789195     0.00043350    -0.00071222    -0.00034713
H         0.88191090    -0.17224927     1.79762726    -0.00103516    -0.00015795    -0.00094648
H        -0.96419835    -0.12364725     1.85863353    -0.00149604    -0.00029286     0.00045073
H        -0.97547111     0.05644067    -0.57003694     0.00056564    -0.00086622     0.00029895
     6
  Step:     9            Position(A)                                  Velocity(au)
C        -0.04080779     0.01993340    -0.02216670    -0.00007209     0.00021030    -0.00106323
N        -0.04207870    -0.04298148     1.33496476     0.00015984    -0.00003010     0.00095734
H         0.92653900    -0.06308407    -0.47998841     0.00049398    -0.00072214    -0.00040243
H         0.87610359    -0.17321040     1.79249914    -0.00102883    -0.00018912    -0.00088282
H        -0.97205864    -0.12532311     1.86097928    -0.00131531    -0.00030604     0.00038759
H        -0.97251113     0.05159900    -0.56845204     0.00048801    -0.00087027     0.00026356
     6
  Step:    10            Position(A)                                  Velocity(au)
C        -0.04119965     0.02111032    -0.02816538    -0.00006698     0.00021022    -0.00107720
N        -0.04123330    -0.04314206     1.34038025     0.00014071    -0.00002716     0.00097482
H         0.92944606    -0.06713275    -0.48237842     0.00053987    -0.00072408    -0.00044951
H         0.87044096    -0.17435773     1.78778514    -0.00097671    -0.00022341    -0.00079297
H        -0.97886217    -0.12705917     1.86295464    -0.00111191    -0.00031274     0.00031708
H        -0.97003047     0.04673842    -0.56709868     0.00039149    -0.00086733     0.00021491
     6
  Step:    11            Position(A)                                  Velocity(au)
C        -0.04155708     0.02228521    -0.03421756    -0.00009871     0.00034572    -0.00178592
N        -0.04050452    -0.04328535     1.34587024     0.00019526    -0.00003941     0.00162345
H         0.93257867    -0.07118455    -0.48501711     0.00094793    -0.00119309    -0.00081074
H         0.86517698    -0.17570968     1.78362800    -0.00146366    -0.00043265    -0.00112929
H        -0.98449776    -0.12882176     1.86452649    -0.00148479    -0.00052109     0.00040341
H        -0.96813144     0.04189606    -0.56604776     0.00046343    -0.00142501     0.00025757
     6
  Step:    12            Position(A)                                  Velocity(au)
C        -0.04209967     0.02418048    -0.04386217    -0.00005256     0.00018567    -0.00092784
N        -0.03948312    -0.04349753     1.35470342     0.00009382    -0.00002014     0.00085608
H         0.93824273    -0.07778504    -0.48994077     0.00059735    -0.00065299    -0.00052693
H         0.85740120    -0.17811659     1.77776422    -0.00072035    -0.00024201    -0.00053288
H        -0.99217113    -0.13166387     1.86660106    -0.00070165    -0.00027660     0.00018836
H        -0.96607434     0.03411025    -0.56515866     0.00014730    -0.00076098     0.00003126
     6
  Step:    13            Position(A)                                  Velocity(au)
C        -0.04236186     0.02521740    -0.04904476    -0.00003978     0.00018147    -0.00090550
N        -0.03903858    -0.04359854     1.35949307     0.00006318    -0.00001553     0.00083791
H         0.94161543    -0.08142890    -0.49297944     0.00059198    -0.00063674    -0.00054666
H         0.85382987    -0.17961867     1.77518728    -0.00053440    -0.00029125    -0.00037649
H        -0.99546637    -0.13320974     1.86744761    -0.00046899    -0.00027022     0.00011355
H        -0.96563359     0.02984990    -0.56519245     0.00000759    -0.00074835    -0.00004439
     6
  Step:    14            Position(A)                                  Velocity(au)
C        -0.04254905     0.02623023    -0.05409029    -0.00002637     0.00017830    -0.00088533
N        -0.03876951    -0.04367292     1.36416810     0.00003232    -0.00001080     0.00082107
H         0.94492951    -0.08497737    -0.49611564     0.00058072    -0.00062327    -0.00056514
H         0.85136481    -0.18140647     1.77351153    -0.00033487    -0.00034482    -0.00021727
H        -0.99746860    -0.13471621     1.86788371    -0.00024727    -0.00026465     0.00004414
H        -0.96598861     0.02565726    -0.56566001    -0.00013347    -0.00074173    -0.00012196
     6
  Step:    15            Position(A)                                  Velocity(au)
C        -0.04265877     0.02722477    -0.05901236    -0.00001255     0.00017621    -0.00086804
N        -0.03867467    -0.04372015     1.36873714     0.00000174    -0.00000596     0.00080621
H         0.94815356    -0.08844611    -0.49934214     0.00056443    -0.00061279    -0.00058298
H         0.85005968    -0.18350086     1.77274113    -0.00012757    -0.00040234    -0.00005743
H        -0.99825033    -0.13618933     1.86794451    -0.00003744    -0.00026049    -0.00001916
H        -0.96713626     0.02149909    -0.56656551    -0.00027402    -0.00074125    -0.00020023
     6
  Step:    16            Position(A)                                  Velocity(au)
C        -0.04268982     0.02820700    -0.06382835     0.00000148     0.00017501    -0.00085312
N        -0.03875002    -0.04373978     1.37321250    -0.00002809    -0.00000100     0.00079290
H         0.95126150    -0.09185186    -0.50265573     0.00054318    -0.00060468    -0.00060008
H         0.84993367    -0.18592006     1.77286731     0.00008161    -0.00046281     0.00010088
H        -0.99788859    -0.13763844     1.86766879     0.00015969    -0.00025797    -0.00007562
H        -0.96906266     0.01734163    -0.56790627    -0.00041181    -0.00074606    -0.00027779
     6
  Step:    17            Position(A)                                  Velocity(au)
C        -0.04264217     0.02918188    -0.06855269     0.00001548     0.00017442    -0.00083954
N        -0.03898878    -0.04373133     1.37760402    -0.00005655     0.00000406     0.00078022
H         0.95422793    -0.09520822    -0.50605277     0.00051676    -0.00059808    -0.00061592
H         0.85097230    -0.18867637     1.77386928     0.00028603    -0.00052470     0.00025500
H        -0.99646458    -0.13907417     1.86709884     0.00034246    -0.00025719    -0.00012433
H        -0.97174151     0.01315603    -0.56967201    -0.00054396    -0.00075484    -0.00035292
     6
  Step:    18            Position(A)                                  Velocity(au)
C        -0.04251708     0.03015278    -0.07319413     0.00002916     0.00017414    -0.00082628
N        -0.03938084    -0.04369447     1.38191645    -0.00008290     0.00000918     0.00076724
H         0.95702634    -0.09852388    -0.50952683     0.00048499    -0.00059210    -0.00062986
H         0.85312455    -0.19177346     1.77571206     0.00047839    -0.00058614     0.00040178
H        -0.99406812    -0.14050761     1.86628179     0.00050833    -0.00025824    -0.00016411
H        -0.97513091     0.00892085    -0.57184333    -0.00066707    -0.00076617    -0.00042367
     6
  Step:    19            Position(A)                                  Velocity(au)
C        -0.04231740     0.03112146    -0.07775562     0.00004218     0.00017394    -0.00081250
N        -0.03991215    -0.04362909     1.38614936    -0.00010638     0.00001429     0.00075322
H         0.95962959    -0.10180288    -0.51306801     0.00044796    -0.00058607    -0.00064133
H         0.85630051    -0.19520467     1.77834422     0.00065131    -0.00064516     0.00053787
H        -0.99080288    -0.14195043     1.86527101     0.00065404    -0.00026130    -0.00019365
H        -0.97917123     0.00462258    -0.57439075    -0.00077768    -0.00077875    -0.00048811
     6
  Step:    20            Position(A)                                  Velocity(au)
C        -0.04204770     0.03208833    -0.08223547     0.00005422     0.00017361    -0.00079764
N        -0.04056456    -0.04353542     1.39029811    -0.00012620     0.00001933     0.00073765
H         0.96201115    -0.10504552    -0.51666342     0.00040607    -0.00057953    -0.00064993
H         0.86037214    -0.19895264     1.78169731     0.00079801    -0.00069985     0.00066010
H        -0.98679017    -0.14341525     1.86412691     0.00077604    -0.00026659    -0.00021163
H        -0.98378476     0.00025515    -0.57727490    -0.00087253    -0.00079139    -0.00054447
     6
  Step:    21            Position(A)                                  Velocity(au)
C        -0.04171421     0.03305269    -0.08662873     0.00006498     0.00017300    -0.00078137
N        -0.04131600    -0.04341402     1.39435511    -0.00014172     0.00002423     0.00072024
H         0.96414674    -0.10824967    -0.52029797     0.00035994    -0.00057222    -0.00065542
H         0.86517773    -0.20298989     1.78568731     0.00091300    -0.00074852     0.00076585
H        -0.98217006    -0.14491603     1.86291677     0.00087098    -0.00027443    -0.00021692
H        -0.98887742    -0.00418101    -0.58044759    -0.00094893    -0.00080312    -0.00059134
     6
  Step:    22            Position(A)                                  Velocity(au)
C        -0.04132472     0.03401308    -0.09092861     0.00007421     0.00017204    -0.00076360
N        -0.04214121    -0.04326580     1.39831109    -0.00015244     0.00002894     0.00070090
H         0.96601566    -0.11141177    -0.52395532     0.00031043    -0.00056409    -0.00065776
H         0.87052966    -0.20728021     1.79021774     0.00099249    -0.00078983     0.00085325
H        -0.97710009    -0.14646838     1.86171361     0.00093608    -0.00028513    -0.00020868
H        -0.99434198    -0.00867997    -0.58385379    -0.00100494    -0.00081315    -0.00062772
     6
  Step:    23            Position(A)                                  Velocity(au)
C        -0.04088822     0.03496751    -0.09512758     0.00008172     0.00017067    -0.00074437
N        -0.04301267    -0.04309193     1.40215612    -0.00015809     0.00003341     0.00067969
H         0.96760187    -0.11452795    -0.52761887     0.00025852    -0.00055520    -0.00065706
H         0.87622417    -0.21178066     1.79518402     0.00103465    -0.00082285     0.00092134
H        -0.97175143    -0.14808954     1.86059420     0.00096948    -0.00029901    -0.00018651
H        -1.00006242    -0.01323139    -0.58743410    -0.00103954    -0.00082087    -0.00065313
     6
  Step:    24            Position(A)                                  Velocity(au)
C        -0.04041458     0.03591373    -0.09921831     0.00008741     0.00016887    -0.00072388
N        -0.04390183    -0.04289375     1.40588054    -0.00015862     0.00003762     0.00065682
H         0.96889474    -0.11759477    -0.53127269     0.00020527    -0.00054577    -0.00065357
H         0.88205220    -0.21644400     1.80047832     0.00103960    -0.00084713     0.00097006
H        -0.96630340    -0.14979832     1.85963650     0.00097044    -0.00031634    -0.00015052
H        -1.00591892    -0.01782164    -0.59112745    -0.00105260    -0.00082587    -0.00066759
     6
  Step:    25            Position(A)                                  Velocity(au)
C        -0.03991412     0.03684945    -0.10319447     0.00009123     0.00016669    -0.00070244
N        -0.04478035    -0.04267268     1.40947569    -0.00015418     0.00004158     0.00063258
H         0.96988935    -0.12060995    -0.53490224     0.00015171    -0.00053611    -0.00064769
H         0.88780947    -0.22122108     1.80599433     0.00100912    -0.00086263     0.00100018
H        -0.96093692    -0.15161484     1.85891684     0.00093943    -0.00033735    -0.00010128
H        -1.01179255    -0.02243491    -0.59487371    -0.00104480    -0.00082796    -0.00067155
     6
  Step:    26            Position(A)                                  Velocity(au)
C        -0.03939722     0.03777252    -0.10705124     0.00009323     0.00016417    -0.00068039
N        -0.04562114    -0.04243013     1.41293451    -0.00014512     0.00004529     0.00060735
H         0.97058642    -0.12357291    -0.53849509     0.00009883    -0.00052658    -0.00063987
H         0.89330497    -0.22606325     1.81163137     0.00094633    -0.00086970     0.00101312
H        -0.95582772    -0.15356016     1.85850710     0.00087818    -0.00036219    -0.00003989
H        -1.01756957    -0.02705431    -0.59861595    -0.00101751    -0.00082709    -0.00066582
     6
  Step:    27            Position(A)                                  Velocity(au)
C        -0.03887400     0.03868109    -0.11078559     0.00009347     0.00016138    -0.00065809
N        -0.04639950    -0.04216741     1.41625194    -0.00013194     0.00004878     0.00058153
H         0.97099197    -0.12648508    -0.54204130     0.00004750    -0.00051760    -0.00063062
H         0.89836777    -0.23092434     1.81729776     0.00085531    -0.00086897     0.00101079
H        -0.95113901    -0.15565577     1.85847177     0.00078960    -0.00039089     0.00003208
H        -1.02314503    -0.03166282    -0.60230233    -0.00097262    -0.00082335    -0.00065149
     6
  Step:    28            Position(A)                                  Velocity(au)
C        -0.03835398     0.03957369    -0.11439647     0.00009209     0.00015839    -0.00063591
N        -0.04709383    -0.04188568     1.41942514    -0.00011526     0.00005209     0.00055552
H         0.97111661    -0.12935008    -0.54553365    -0.00000154    -0.00050958    -0.00062043
H         0.90285136    -0.23576217     1.82291315     0.00074059    -0.00086129     0.00099536
H        -0.94701469    -0.15792299     1.85886519     0.00067766    -0.00042339     0.00011266
H        -1.02842536    -0.03624400    -0.60588747    -0.00091230    -0.00081690    -0.00062979
     6
  Step:    29            Position(A)                                  Velocity(au)
C        -0.03784597     0.04044928    -0.11788464     0.00008922     0.00015528    -0.00061412
N        -0.04768623    -0.04158594     1.42245355    -0.00009576     0.00005524     0.00052971
H         0.97097481    -0.13217379    -0.54896760    -0.00004770    -0.00050289    -0.00060977
H         0.90663549    -0.24053946     1.82840962     0.00060691    -0.00084757     0.00096911
H        -0.94357390    -0.16038233     1.85972946     0.00054712    -0.00045951     0.00019952
H        -1.03332955    -0.04078240    -0.60933302    -0.00083881    -0.00080794    -0.00060198
     6
  Step:    30            Position(A)                                  Velocity(au)
C        -0.03735792     0.04130721    -0.12125240     0.00008503     0.00015212    -0.00059295
N        -0.04816285    -0.04126903     1.42533869    -0.00007416     0.00005826     0.00050442
H         0.97058408    -0.13496424    -0.55234104    -0.00009053    -0.00049791    -0.00059902
H         0.90962678    -0.24522422     1.83373209     0.00045891    -0.00082872     0.00093428
H        -0.94090670    -0.16305286     1.86109258     0.00040340    -0.00049894     0.00029007
H        -1.03778961    -0.04526372    -0.61260787    -0.00075441    -0.00079665    -0.00056933
     6
  Step:    31            Position(A)                                  Velocity(au)
C        -0.03689691     0.04214721    -0.12450319     0.00007965     0.00014895    -0.00057251
N        -0.04851399    -0.04093564     1.42808393    -0.00005119     0.00006118     0.00047991
H         0.96996429    -0.13773150    -0.55565393    -0.00012968    -0.00049498    -0.00058849
H         0.91175784    -0.24978970     1.83883803     0.00030102    -0.00080562     0.00089299
H        -0.93907114    -0.16595154     1.86296727     0.00025223    -0.00054128     0.00038156
H        -1.04175028    -0.04967465    -0.61568795    -0.00066125    -0.00078314    -0.00053304
     6
  Step:    32            Position(A)                                  Velocity(au)
C        -0.03646918     0.04296926    -0.12764089     0.00007322     0.00014581    -0.00055282
N        -0.04873408    -0.04058635     1.43069390    -0.00002757     0.00006401     0.00045635
H         0.96913701    -0.14048762    -0.55890781    -0.00016489    -0.00049446    -0.00057838
H         0.91298577    -0.25421387     1.84369672     0.00013737    -0.00077898     0.00084724
H        -0.93809213    -0.16909283     1.86535032     0.00009946    -0.00058605     0.00047115
H        -1.04516826    -0.05400249    -0.61855591    -0.00056131    -0.00076742    -0.00049422
     6
  Step:    33            Position(A)                                  Velocity(au)
C        -0.03608025     0.04377358    -0.13066943     0.00006585     0.00014273    -0.00053382
N        -0.04882146    -0.04022171     1.43317416    -0.00000395     0.00006674     0.00043385
H         0.96812512    -0.14324675    -0.56210530    -0.00019593    -0.00049673    -0.00056882
H         0.91329011    -0.25847856     1.84828825    -0.00002826    -0.00074935     0.00079883
H        -0.93796174    -0.17248848     1.86822251    -0.00004924    -0.00063279     0.00055600
H        -1.04801120    -0.05823453    -0.62120058    -0.00045640    -0.00074937    -0.00045393
     6
  Step:    34            Position(A)                                  Velocity(au)
C        -0.03573501     0.04456051    -0.13359236     0.00005764     0.00013972    -0.00051539
N        -0.04877809    -0.03984223     1.43553083     0.00001906     0.00006939     0.00041246
H         0.96695266    -0.14602557    -0.56524957    -0.00022257    -0.00050234    -0.00055985
H         0.91267076    -0.26256825     1.85260277    -0.00019239    -0.00071698     0.00074948
H        -0.93864109    -0.17614779     1.87154906    -0.00018861    -0.00068114     0.00063338
H        -1.05025660    -0.06235710    -0.62361676    -0.00034816    -0.00072865    -0.00041323
     6
  Step:    35            Position(A)                                  Velocity(au)
C        -0.03543797     0.04533049    -0.13641264     0.00004861     0.00013679    -0.00049738
N        -0.04860903    -0.03944849     1.43777032     0.00004096     0.00007193     0.00039219
H         0.96564496    -0.14884453    -0.56834390    -0.00024447    -0.00051225    -0.00055145
H         0.91114625    -0.26646809     1.85663993    -0.00035182    -0.00068165     0.00070090
H        -0.94006344    -0.18007868     1.87528051    -0.00031403    -0.00073108     0.00070073
H        -1.05189091    -0.06635407    -0.62580539    -0.00023813    -0.00070453    -0.00037334
     6
  Step:    36            Position(A)                                  Velocity(au)
C        -0.03519359     0.04608405    -0.13913207     0.00003869     0.00013397    -0.00047933
N        -0.04832188    -0.03904114     1.43989890     0.00006138     0.00007433     0.00037282
H         0.96422986    -0.15173083    -0.57139148    -0.00026080    -0.00052837    -0.00054366
H         0.90875225    -0.27016031     1.86040918    -0.00050354    -0.00064204     0.00065505
H        -0.94213866    -0.18429037     1.87935364    -0.00042180    -0.00078342     0.00075555
H        -1.05290884    -0.07020399    -0.62777491    -0.00012779    -0.00067543    -0.00033604
     6
  Step:    37            Position(A)                                  Velocity(au)
C        -0.03500728     0.04682186    -0.14174879     0.00002997     0.00014333    -0.00050165
N        -0.04792575    -0.03862101     1.44192073     0.00008759     0.00008355     0.00038562
H         0.96274162    -0.15472660    -0.57439621    -0.00029341    -0.00060686    -0.00058671
H         0.90554061    -0.27361556     1.86393221    -0.00070361    -0.00064790     0.00067138
H        -0.94475905    -0.18880010     1.88369163    -0.00055623    -0.00091847     0.00086799
H        -1.05331349    -0.07387324    -0.62954638    -0.00002105    -0.00069574    -0.00033367
     6
  Step:    38            Position(A)                                  Velocity(au)
C        -0.03484631     0.04761268    -0.14428972     0.00002941     0.00014081    -0.00042514
N        -0.04740847    -0.03815577     1.44387830     0.00009603     0.00008399     0.00032780
H         0.96126902    -0.15805812    -0.57795194    -0.00025291    -0.00057349    -0.00067730
H         0.90131378    -0.27719378     1.86752255    -0.00081119    -0.00065795     0.00061429
H        -0.94805279    -0.19380790     1.88871306    -0.00061208    -0.00087123     0.00093081
H        -1.05342663    -0.07784439    -0.63152774    -0.00000872    -0.00074236    -0.00035707
     6
  Step:    39            Position(A)                                  Velocity(au)
C        -0.03468001     0.04838854    -0.14647899     0.00002911     0.00013791    -0.00038057
N        -0.04685734    -0.03768656     1.44556793     0.00010160     0.00008516     0.00029297
H         0.95992768    -0.16110733    -0.58193201    -0.00024746    -0.00052510    -0.00072623
H         0.89651512    -0.28093603     1.87076684    -0.00091120    -0.00068763     0.00055417
H        -0.95156917    -0.19849354     1.89404799    -0.00063862    -0.00082631     0.00097249
H        -1.05341047    -0.08213281    -0.63351924     0.00003857    -0.00078761    -0.00033668
     6
  Step:    40            Position(A)                                  Velocity(au)
C        -0.03452255     0.04914656    -0.14852272     0.00002638     0.00013470    -0.00035918
N        -0.04627842    -0.03720859     1.44713688     0.00010590     0.00008681     0.00027500
H         0.95851659    -0.16389868    -0.58602960    -0.00026228    -0.00048672    -0.00073873
H         0.89117881    -0.28484208     1.87368646    -0.00100089    -0.00071148     0.00050092
H        -0.95515597    -0.20299875     1.89952982    -0.00063943    -0.00080240     0.00098746
H        -1.05299761    -0.08660478    -0.63527258     0.00011658    -0.00081091    -0.00029111
     6
  Step:    41            Position(A)                                  Velocity(au)
C        -0.03438664     0.04988631    -0.15047285     0.00002209     0.00013146    -0.00034389
N        -0.04567982    -0.03672124     1.44862574     0.00010829     0.00008852     0.00026205
H         0.95701137    -0.16651932    -0.59014613    -0.00027904    -0.00046001    -0.00073929
H         0.88538599    -0.28884717     1.87633673    -0.00107439    -0.00072784     0.00045672
H        -0.95867917    -0.20741560     1.90502775    -0.00061661    -0.00078881     0.00098178
H        -1.05211414    -0.09114946    -0.63675620     0.00020193    -0.00081991    -0.00024297
     6
  Step:    42            Position(A)                                  Velocity(au)
C        -0.03427695     0.05060781    -0.15234535     0.00001726     0.00012822    -0.00033071
N        -0.04507466    -0.03622457     1.45004979     0.00010820     0.00009022     0.00025127
H         0.95541485    -0.16901214    -0.59424752    -0.00029493    -0.00043923    -0.00073524
H         0.87923596    -0.29293274     1.87876338    -0.00112936    -0.00074281     0.00042042
H        -0.96201020    -0.21176710     1.91044327    -0.00057158    -0.00077720     0.00095976
H        -1.05075300    -0.09571891    -0.63797341     0.00028661    -0.00082243    -0.00019601
     6
  Step:    43            Position(A)                                  Velocity(au)
C        -0.03419481     0.05131119    -0.15414795     0.00001234     0.00012501    -0.00031864
N        -0.04447742    -0.03571859     1.45141809     0.00010551     0.00009195     0.00024188
H         0.95373391    -0.17140044    -0.59831668    -0.00030950    -0.00042181    -0.00072869
H         0.87283561    -0.29710186     1.88100878    -0.00116482    -0.00075932     0.00039164
H        -0.96503108    -0.21605246     1.91569340    -0.00050653    -0.00076461     0.00092380
H        -1.04892909    -0.10028899    -0.63893440     0.00036762    -0.00082160    -0.00015114
     6
  Step:    44            Position(A)                                  Velocity(au)
C        -0.03413983     0.05199663    -0.15588536     0.00000759     0.00012183    -0.00030729
N        -0.04390252    -0.03520308     1.45273707     0.00010028     0.00009373     0.00023351
H         0.95197637    -0.17369832    -0.60234308    -0.00032265    -0.00040646    -0.00072055
H         0.86629518    -0.30136852     1.88311441    -0.00118043    -0.00077891     0.00037026
H        -0.96763760    -0.22026166     1.92070646    -0.00042410    -0.00074989     0.00087585
H        -1.04666884    -0.10484661    -0.63965252     0.00044320    -0.00081897    -0.00010886
     6