     6
  Step:     0            Position(A)                                  Velocity(au)
C        -0.03140423     0.02223030     0.04233478    -0.00002191    -0.00000904     0.00001206
N        -0.05425803    -0.05039320     1.27714036    -0.00016511     0.00006986     0.00006074
H         0.89629658    -0.02953514    -0.51164625     0.00062525     0.00008048    -0.00043612
H         0.87749880    -0.15106415     1.80753219     0.00150268    -0.00060382     0.00044546
H        -0.88941889    -0.07175096     1.87774930     0.00066974    -0.00012941    -0.00093396
H        -0.96911058     0.01795602    -0.53364905    -0.00024208    -0.00021030    -0.00006315
     6
  Step:     1            Position(A)                                  Velocity(au)
C        -0.03153120     0.02220256     0.04213373    -0.00002395    -0.00000121    -0.00008552
N        -0.05513307    -0.05002889     1.27774517    -0.00015314     0.00006337     0.00015971
H         0.89998042    -0.02911216    -0.51433063     0.00071398     0.00007481    -0.00054072
H         0.88531958    -0.15434251     1.80984260     0.00134453    -0.00059374     0.00039242
H        -0.88577008    -0.07245844     1.87269132     0.00065213    -0.00012983    -0.00090523
H        -0.97059067     0.01678693    -0.53422605    -0.00029704    -0.00021735    -0.00014674
     6
  Step:     2            Position(A)                                  Velocity(au)
C        -0.03166621     0.02221706     0.04139933    -0.00002488     0.00000636    -0.00018236
N        -0.05593306    -0.04970011     1.27888722    -0.00013779     0.00005693     0.00025652
H         0.90410601    -0.02871683    -0.51756051     0.00078653     0.00007040    -0.00063542
H         0.89220505    -0.15755835     1.81182445     0.00116317    -0.00058124     0.00032684
H        -0.88228600    -0.07317106     1.86784811     0.00060895    -0.00013136    -0.00085523
H        -0.97235959     0.01557869    -0.53525406    -0.00034739    -0.00022463    -0.00022789
     6
  Step:     3            Position(A)                                  Velocity(au)
C        -0.03180329     0.02227214     0.04013927    -0.00002475     0.00001359    -0.00027715
N        -0.05664002    -0.04940630     1.28055072    -0.00011923     0.00005062     0.00034975
H         0.90858259    -0.02834224    -0.52128015     0.00084217     0.00006723    -0.00071968
H         0.89804104    -0.16069943     1.81341726     0.00096290    -0.00056659     0.00025154
H        -0.87911012    -0.07389508     1.86333780     0.00053917    -0.00013404    -0.00078349
H        -0.97439007     0.01433014    -0.53671848    -0.00039238    -0.00023206    -0.00030614
     6
  Step:     4            Position(A)                                  Velocity(au)
C        -0.03193690     0.02236574     0.03836822    -0.00002366     0.00002041    -0.00036855
N        -0.05723707    -0.04914643     1.28271240    -0.00009771     0.00004454     0.00043802
H         0.91331671    -0.02798155    -0.52543156     0.00088049     0.00006529    -0.00079308
H         0.90273617    -0.16375503     1.81457553     0.00074779    -0.00055001     0.00016919
H        -0.87638912    -0.07463706     1.85927918     0.00044273    -0.00013790    -0.00069027
H        -0.97665096     0.01304065    -0.53860229    -0.00043126    -0.00023951    -0.00038099
     6
  Step:     5            Position(A)                                  Velocity(au)
C        -0.03206208     0.02249539     0.03610789    -0.00002172     0.00002673    -0.00045523
N        -0.05770876    -0.04891909     1.28534193    -0.00007352     0.00003874     0.00052000
H         0.91821375    -0.02762810    -0.52995523     0.00090134     0.00006452    -0.00085532
H         0.90622069    -0.16671569     1.81526798     0.00052184    -0.00053171     0.00008239
H        -0.87426738    -0.07540351     1.85578736     0.00032066    -0.00014289    -0.00057671
H        -0.97910739     0.01171024    -0.54088587    -0.00046335    -0.00024683    -0.00045188
     6
  Step:     6            Position(A)                                  Velocity(au)
C        -0.03217453     0.02265825     0.03338699    -0.00001906     0.00003249    -0.00053585
N        -0.05804153    -0.04872250     1.28840230    -0.00004708     0.00003329     0.00059446
H         0.92317934    -0.02727553    -0.53479062     0.00090486     0.00006486    -0.00090618
H         0.90844625    -0.16957308     1.81547711     0.00028916    -0.00051188    -0.00000628
H        -0.87288039    -0.07620057     1.85296877     0.00017541    -0.00014888    -0.00044499
H        -0.98172096     0.01033979    -0.54354678    -0.00048797    -0.00025383    -0.00051820
     6
  Step:     7            Position(A)                                  Velocity(au)
C        -0.03227074     0.02285108     0.03024119    -0.00001583     0.00003761    -0.00060907
N        -0.05822426    -0.04855460     1.29185035    -0.00001894     0.00002824     0.00066025
H         0.92812064    -0.02691795    -0.53987649     0.00089142     0.00006621    -0.00094547
H         0.90938656    -0.17231997     1.81519919     0.00005411    -0.00049073    -0.00009422
H        -0.87234688    -0.07703353     1.85091540     0.00001094    -0.00015568    -0.00029841
H        -0.98444988     0.00893116    -0.54655933    -0.00050451    -0.00026031    -0.00057926
     6
  Step:     8            Position(A)                                  Velocity(au)
C        -0.03234802     0.02307033     0.02671285    -0.00001219     0.00004202    -0.00067365
N        -0.05824909    -0.04841306     1.29563727     0.00001022     0.00002363     0.00071636
H         0.93294738    -0.02654997    -0.54515103     0.00086162     0.00006847    -0.00097310
H         0.90903916    -0.17495044     1.81444462    -0.00017854    -0.00046854    -0.00017872
H        -0.87276048    -0.07790644     1.84969885    -0.00016724    -0.00016298    -0.00014134
H        -0.98724930     0.00748733    -0.54989427    -0.00051245    -0.00026604    -0.00063434
     6
  Step:     9            Position(A)                                  Velocity(au)
C        -0.03240452     0.02331210     0.02285072    -0.00000831     0.00004568    -0.00072844
N        -0.05811217    -0.04829535     1.29970933     0.00003957     0.00001951     0.00076192
H         0.93757321    -0.02616681    -0.55055215     0.00081640     0.00007150    -0.00098905
H         0.90742783    -0.17746018     1.81323848    -0.00040354    -0.00044566    -0.00025697
H        -0.87418159    -0.07882160     1.84936482    -0.00035224    -0.00017044     0.00002091
H        -0.99007181     0.00601248    -0.55351849    -0.00051140    -0.00027080    -0.00068266
     6
  Step:    10            Position(A)                                  Velocity(au)
C        -0.03243928     0.02357222     0.01870933    -0.00000433     0.00004853    -0.00077246
N        -0.05781437    -0.04819871     1.30400863     0.00006816     0.00001591     0.00079627
H         0.94191730    -0.02576441    -0.55601794     0.00075704     0.00007516    -0.00099345
H         0.90460543    -0.17984697     1.81162123    -0.00061517    -0.00042255    -0.00032609
H        -0.87663058    -0.07977914     1.84992859    -0.00053614    -0.00017763     0.00018238
H        -0.99286813     0.00451199    -0.55739485    -0.00050116    -0.00027437    -0.00072351
     6
  Step:    11            Position(A)                                  Velocity(au)
C        -0.03245221     0.02384632     0.01434806    -0.00000044     0.00005055    -0.00080498
N        -0.05736194    -0.04812022     1.30847415     0.00009498     0.00001286     0.00081902
H         0.94590617    -0.02533949    -0.56148742     0.00068520     0.00007931    -0.00098666
H         0.90065647    -0.18211132     1.80964911    -0.00080744    -0.00039981    -0.00038322
H        -0.88008310    -0.08077677     1.85137237    -0.00071056    -0.00018407     0.00033689
H        -0.99558823     0.00299244    -0.56148242    -0.00048180    -0.00027656    -0.00075626
     6
  Step:    12            Position(A)                                  Velocity(au)
C        -0.03244408     0.02412988     0.00982978     0.00000324     0.00005174    -0.00082563
N        -0.05676669    -0.04805682     1.31304309     0.00011902     0.00001040     0.00083009
H         0.94947559    -0.02488959    -0.56690161     0.00060290     0.00008379    -0.00096929
H         0.89569874    -0.18425718     1.80739401    -0.00097435    -0.00037815    -0.00042568
H        -0.88446867    -0.08180960     1.85364481    -0.00086732    -0.00018934     0.00047852
H        -0.99818273     0.00146134    -0.56573703    -0.00045367    -0.00027725    -0.00078048
     6
  Step:    13            Position(A)                                  Velocity(au)
C        -0.03241639     0.02441840     0.00521900     0.00000656     0.00005211    -0.00083447
N        -0.05604596    -0.04800528     1.31765250     0.00013935     0.00000853     0.00082978
H         0.95257246    -0.02441303    -0.57220493     0.00051248     0.00008847    -0.00094229
H         0.88988300    -0.18629260     1.80494236    -0.00111033    -0.00035843    -0.00045113
H        -0.88967312    -0.08287029     1.85666335    -0.00099922    -0.00019304     0.00060211
H        -1.00060449    -0.00007311    -0.57011225    -0.00041747    -0.00027639    -0.00079603
     6
  Step:    14            Position(A)                                  Velocity(au)
C        -0.03237132     0.02470748     0.00057962     0.00000943     0.00005171    -0.00083205
N        -0.05522204    -0.04796228     1.32224126     0.00015521     0.00000728     0.00081884
H         0.95515652    -0.02390890    -0.57734693     0.00041653     0.00009324    -0.00090696
H         0.88339059    -0.18823040     1.80239317    -0.00121075    -0.00034157    -0.00045781
H        -0.89554510    -0.08394943     1.86031920    -0.00110078    -0.00019490     0.00070380
H        -1.00281044    -0.00160249    -0.57456107    -0.00037423    -0.00027406    -0.00080315
     6
  Step:    15            Position(A)                                  Velocity(au)
C        -0.03231156     0.02499304    -0.00402779     0.00001178     0.00005063    -0.00081945
N        -0.05432105    -0.04792439     1.32675246     0.00016612     0.00000665     0.00079845
H         0.95720152    -0.02337685    -0.58228431     0.00031771     0.00009803    -0.00086501
H         0.87642753    -0.19008855     1.79985463    -0.00127248    -0.00032855    -0.00044468
H        -0.90190636    -0.08503622     1.86448485    -0.00116876    -0.00019479     0.00078136
H        -1.00476340    -0.00311882    -0.57903789    -0.00032524    -0.00027044    -0.00080253
     6
  Step:    16            Position(A)                                  Velocity(au)
C        -0.03224013     0.02527147    -0.00854879     0.00001356     0.00004898    -0.00079824
N        -0.05337150    -0.04788815     1.33113568     0.00017188     0.00000665     0.00077019
H         0.95869565    -0.02281688    -0.58698290     0.00021854     0.00010284    -0.00081841
H         0.86921561    -0.19189029     1.79743955    -0.00129421    -0.00032032    -0.00041158
H        -0.90856464    -0.08611931     1.86902326    -0.00120239    -0.00019276     0.00083433
H        -1.00643347    -0.00461514    -0.58350096    -0.00027196    -0.00026586    -0.00079529
     6
  Step:    17            Position(A)                                  Velocity(au)
C        -0.03216022     0.02553976    -0.01293756     0.00001478     0.00004689    -0.00077030
N        -0.05240256    -0.04785012     1.33534914     0.00017259     0.00000727     0.00073590
H         0.95964083    -0.02222900    -0.59141924     0.00012123     0.00010771    -0.00076927
H         0.86198187    -0.19366390     1.79526069    -0.00127657    -0.00031777    -0.00035909
H        -0.91532718    -0.08718771     1.87379744    -0.00120317    -0.00018899     0.00086388
H        -1.00779894    -0.00608631    -0.58791476    -0.00021587    -0.00026073    -0.00078292
     6
  Step:    18            Position(A)                                  Velocity(au)
C        -0.03207498     0.02579561    -0.01715869     0.00001545     0.00004450    -0.00073763
N        -0.05144242    -0.04780690     1.33936109     0.00016860     0.00000849     0.00069748
H         0.96005071    -0.02161295    -0.59558130     0.00002745     0.00011276    -0.00071963
H         0.85494701    -0.19544210     1.79342591    -0.00122191    -0.00032162    -0.00028845
H        -0.92201285    -0.08823166     1.87867908    -0.00117430    -0.00018377     0.00087242
H        -1.00884628    -0.00752944    -0.59225190    -0.00015829    -0.00025553    -0.00076707
     6
  Step:    19            Position(A)                                  Velocity(au)
C        -0.03198739     0.02603744    -0.02118767     0.00001623     0.00004409    -0.00074970
N        -0.05051683    -0.04775519     1.34315013     0.00016045     0.00000947     0.00069334
H         0.95994784    -0.02096782    -0.59946803    -0.00008779     0.00016424    -0.00063139
H         0.84831540    -0.19726104     1.79203448    -0.00115879    -0.00038881    -0.00021660
H        -0.92846117    -0.08924314     1.88355506    -0.00110417    -0.00013497     0.00085579
H        -1.00956932    -0.00894426    -0.59649405    -0.00007228    -0.00029745    -0.00070921
     6
  Step:    20            Position(A)                                  Velocity(au)
C        -0.03189349     0.02628876    -0.02554335     0.00001693     0.00004576    -0.00080924
N        -0.04964792    -0.04770100     1.34711540     0.00014883     0.00000994     0.00072617
H         0.95906889    -0.01977612    -0.60264285    -0.00022393     0.00024807    -0.00050527
H         0.84198707    -0.19979061     1.79100347    -0.00109152    -0.00050217    -0.00014555
H        -0.93436195    -0.08974113     1.88825025    -0.00099598    -0.00005729     0.00081281
H        -1.00965465    -0.01085615    -0.60018378     0.00004149    -0.00037188    -0.00061015
     6
  Step:    21            Position(A)                                  Velocity(au)
C        -0.03179813     0.02654893    -0.03023395     0.00001695     0.00004721    -0.00086733
N        -0.04885306    -0.04764412     1.35126778     0.00013420     0.00001068     0.00075842
H         0.95744461    -0.01819472    -0.60511634    -0.00035274     0.00031164    -0.00038352
H         0.83611354    -0.20287466     1.79040736    -0.00099676    -0.00059724    -0.00006113
H        -0.93959497    -0.08988360     1.89264130    -0.00086977    -0.00000004     0.00075304
H        -1.00910546    -0.01310147    -0.60331476     0.00015246    -0.00042530    -0.00051251
     6
  Step:    22            Position(A)                                  Velocity(au)
C        -0.03170416     0.02681617    -0.03523245     0.00001651     0.00004835    -0.00092015
N        -0.04814874    -0.04758171     1.35558783     0.00011684     0.00001198     0.00078682
H         0.95512834    -0.01629477    -0.60692716    -0.00047116     0.00036485    -0.00026949
H         0.83085215    -0.20646242     1.79032058    -0.00087519    -0.00068610     0.00003594
H        -0.94407825    -0.08974160     1.89666256    -0.00073118     0.00004685     0.00068381
H        -1.00795149    -0.01560721    -0.60590906     0.00025714    -0.00046816    -0.00041970
     6
  Step:    23            Position(A)                                  Velocity(au)
C        -0.03161384     0.02708863    -0.04050514     0.00001569     0.00004916    -0.00096674
N        -0.04754878    -0.04751042     1.36005073     0.00009726     0.00001388     0.00081065
H         0.95218522    -0.01412204    -0.60812455    -0.00057718     0.00041111    -0.00016474
H         0.82634415    -0.21053333     1.79080849    -0.00073028    -0.00077257     0.00014367
H        -0.94775681    -0.08936059     1.90027433    -0.00058455     0.00008683     0.00060896
H        -1.00623510    -0.01832735    -0.60799973     0.00035350    -0.00050413    -0.00033330
     6
  Step:    24            Position(A)                                  Velocity(au)
C        -0.03152919     0.02736453    -0.04601577     0.00001451     0.00004966    -0.00100658
N        -0.04706382    -0.04742684     1.36463011     0.00007605     0.00001638     0.00082961
H         0.94869031    -0.01170906    -0.60876470    -0.00066887     0.00045224    -0.00007042
H         0.82270633    -0.21507988     1.79192315    -0.00056686    -0.00085809     0.00025938
H        -0.95059852    -0.08877303     1.90345515    -0.00043373     0.00012172     0.00053138
H        -1.00400841    -0.02123040    -0.60962681     0.00043977    -0.00053520    -0.00025440
     6
  Step:    25            Position(A)                                  Velocity(au)
C        -0.03145214     0.02764220    -0.05172625     0.00001297     0.00004985    -0.00103924
N        -0.04670094    -0.04732781     1.36929899     0.00005388     0.00001940     0.00084353
H         0.94472877    -0.00908062    -0.60890958    -0.00074428     0.00048926     0.00001240
H         0.82002493    -0.22009907     1.79369998    -0.00039090    -0.00094286     0.00037974
H        -0.95259195    -0.08800372     1.90619806    -0.00028237     0.00015259     0.00045347
H        -1.00133262    -0.02429366    -0.61083576     0.00051425    -0.00056260    -0.00018394
     6
  Step:    26            Position(A)                                  Velocity(au)
C        -0.03138464     0.02792004    -0.05759668     0.00001108     0.00004975    -0.00106432
N        -0.04646337    -0.04721063     1.37403009     0.00003148     0.00002286     0.00085233
H         0.94039635    -0.00625690    -0.60862653    -0.00080138     0.00052280     0.00008270
H         0.81835025    -0.22558674     1.79615479    -0.00020928    -0.00102618     0.00050095
H        -0.95374513    -0.08707267     1.90850846    -0.00013405     0.00018007     0.00037738
H        -0.99827776    -0.02749987    -0.61167658     0.00057526    -0.00058710    -0.00012276
     6
  Step:    27            Position(A)                                  Velocity(au)
C        -0.03132871     0.02819652    -0.06358542     0.00000882     0.00004936    -0.00108149
N        -0.04635015    -0.04707314     1.37879602     0.00000963     0.00002663     0.00085599
H         0.93579938    -0.00325537    -0.60798808    -0.00083832     0.00055319     0.00013955
H         0.81769301    -0.23153322     1.79928185    -0.00002942    -0.00110676     0.00061897
H        -0.95408556    -0.08599725     1.91040302     0.00000764     0.00020456     0.00030514
H        -0.99492275    -0.03083540    -0.61220361     0.00062122    -0.00060921    -0.00007164
     6
  Step:    28            Position(A)                                  Velocity(au)
C        -0.03128637     0.02847015    -0.06964923     0.00000619     0.00004871    -0.00109056
N        -0.04635604    -0.04691388     1.38356952    -0.00001089     0.00003058     0.00085460
H         0.93105387    -0.00009190    -0.60707137    -0.00085348     0.00058067     0.00018214
H         0.81802239    -0.23792083     1.80305286     0.00014114    -0.00118295     0.00072974
H        -0.95366003    -0.08479302     1.91190901     0.00013918     0.00022624     0.00023862
H        -0.99135463    -0.03428915    -0.61247493     0.00065078    -0.00062931    -0.00003122
     6
  Step:    29            Position(A)                                  Velocity(au)
C        -0.03125971     0.02873958    -0.07574405     0.00000319     0.00004781    -0.00109151
N        -0.04647157    -0.04673222     1.38832399    -0.00002934     0.00003456     0.00084838
H         0.92628397     0.00321846    -0.60595735    -0.00084571     0.00060536     0.00020994
H         0.81926658    -0.24472193     1.80741766     0.00029529    -0.00125297     0.00082948
H        -0.95253380    -0.08347485     1.91306339     0.00025726     0.00024526     0.00017957
H        -0.98766720    -0.03785153    -0.61255172     0.00066292    -0.00064764    -0.00000201
     6
  Step:    30            Position(A)                                  Velocity(au)
C        -0.03125080     0.02900352    -0.08182593    -0.00000017     0.00004670    -0.00108455
N        -0.04668335    -0.04652831     1.39303399    -0.00004507     0.00003843     0.00083766
H         0.92161926     0.00666146    -0.60472933    -0.00081451     0.00062747     0.00022273
H         0.82131662    -0.25189878     1.81230649     0.00042689    -0.00131516     0.00091506
H        -0.95079002    -0.08205698     1.91391229     0.00035886     0.00026169     0.00012955
H        -0.98395917    -0.04151414    -0.61249734     0.00065709    -0.00066452     0.00001575
     6
  Step:    31            Position(A)                                  Velocity(au)
C        -0.03126160     0.02926091    -0.08785225    -0.00000385     0.00004540    -0.00107015
N        -0.04697471    -0.04630313     1.39767588    -0.00005755     0.00004206     0.00082289
H         0.91719057     0.01022377    -0.60347076    -0.00076019     0.00064725     0.00022075
H         0.82403249    -0.25940476     1.81763364     0.00053117    -0.00136820     0.00098412
H        -0.94852744    -0.08055322     1.91450974     0.00044142     0.00027567     0.00008985
H        -0.98033128    -0.04527040    -0.61237584     0.00063331    -0.00068030     0.00002211
     6
  Step:    32            Position(A)                                  Velocity(au)
C        -0.03129385     0.02951084    -0.09378314    -0.00000782     0.00004398    -0.00104902
N        -0.04732642    -0.04605831     1.40222843    -0.00006644     0.00004535     0.00080462
H         0.91312540     0.01389341    -0.60226276    -0.00068388     0.00066499     0.00020472
H         0.82725163    -0.26718622     1.82330238     0.00060508    -0.00141120     0.00103528
H        -0.94585783    -0.07897677     1.91491627     0.00050306     0.00028731     0.00006145
H        -0.97688294    -0.04911533    -0.61225026     0.00059223    -0.00069534     0.00001744
     6
  Step:    33            Position(A)                                  Velocity(au)
C        -0.03134906     0.02975266    -0.09958264    -0.00001201     0.00004245    -0.00102204
N        -0.04771765    -0.04579600     1.40667333    -0.00007154     0.00004822     0.00078347
H         0.90954328     0.01765982    -0.60118154    -0.00058752     0.00068111     0.00017577
H         0.83079859    -0.27518510     1.82921042     0.00064726    -0.00144377     0.00106814
H        -0.94290212    -0.07734042     1.91519691     0.00054255     0.00029682     0.00004496
H        -0.97370877    -0.05304580    -0.61218080     0.00053506    -0.00071002     0.00000241
     6
  Step:    34            Position(A)                                  Velocity(au)
C        -0.03142829     0.02998581    -0.10521982    -0.00001635     0.00004084    -0.00099021
N        -0.04812697    -0.04551871     1.41099552    -0.00007284     0.00005063     0.00076007
H         0.90655094     0.02151508    -0.60029585    -0.00047385     0.00069612     0.00013549
H         0.83449457    -0.28334213     1.83525495     0.00065803    -0.00146607     0.00108313
H        -0.93978659    -0.07565536     1.91541938     0.00055946     0.00030448     0.00004061
H        -0.97089552    -0.05706058    -0.61222327     0.00046353    -0.00072476    -0.00002203
     6
  Step:    35            Position(A)                                  Velocity(au)
C        -0.03153216     0.03020993    -0.11066939    -0.00002075     0.00003919    -0.00095462
N        -0.04853323    -0.04522914     1.41518335    -0.00007048     0.00005256     0.00073506
H         0.90423792     0.02545378    -0.59966461    -0.00034620     0.00071051     0.00008577
H         0.83816604    -0.29159962     1.84133750     0.00063899    -0.00147867     0.00108143
H        -0.93663827    -0.07393134     1.91565162     0.00055410     0.00031060     0.00004823
H        -0.96851897    -0.06116040    -0.61242744     0.00037980    -0.00073990    -0.00005468
     6
  Step:    36            Position(A)                                  Velocity(au)
C        -0.03166070     0.03042481    -0.11591200    -0.00002511     0.00003753    -0.00091630
N        -0.04891637    -0.04492999     1.41922845    -0.00006471     0.00005403     0.00070898
H         0.90267331     0.02947313    -0.59933521    -0.00020836     0.00072477     0.00002875
H         0.84165152    -0.29990385     1.84736744     0.00059277    -0.00148248     0.00106468
H        -0.93358040    -0.07217650     1.91595953     0.00052757     0.00031548     0.00006723
H        -0.96664155    -0.06534781    -0.61283571     0.00028640    -0.00075578    -0.00009415
     6
  Step:    37            Position(A)                                  Velocity(au)
C        -0.03181340     0.03063031    -0.12093409    -0.00002932     0.00003585    -0.00087622
N        -0.04925809    -0.04462385     1.42312553    -0.00005588     0.00005507     0.00068232
H         0.90190377     0.03357284    -0.59934254    -0.00006436     0.00073930    -0.00003333
H         0.84480640    -0.30820678     1.85326440     0.00052263    -0.00147860     0.00103482
H        -0.93072827    -0.07039722     1.91640473     0.00048161     0.00031945     0.00009667
H        -0.96531059    -0.06962686    -0.61348218     0.00018605    -0.00077261    -0.00013894
     6
  Step:    38            Position(A)                                  Velocity(au)
C        -0.03198913     0.03082639    -0.12572738    -0.00003329     0.00003417    -0.00083520
N        -0.04954234    -0.04431309     1.42687185    -0.00004442     0.00005572     0.00065548
H         0.90195236     0.03775477    -0.59970852     0.00008166     0.00075444    -0.00009819
H         0.84750603    -0.31646711     1.85895948     0.00043221    -0.00146823     0.00099388
H        -0.92818543    -0.06859808     1.91704244     0.00041855     0.00032280     0.00013528
H        -0.96455739    -0.07400257    -0.61439215     0.00008158    -0.00079050    -0.00018748
     6
  Step:    39            Position(A)                                  Velocity(au)
C        -0.03218623     0.03101303    -0.13028815    -0.00003692     0.00003249    -0.00079395
N        -0.04975561    -0.04399979     1.43046677    -0.00003080     0.00005603     0.00062874
H         0.90281840     0.04202239    -0.60044225     0.00022561     0.00077039    -0.00016364
H         0.84964707    -0.32465067     1.86439565     0.00032524    -0.00145257     0.00094387
H        -0.92604054    -0.06678193     1.91791982     0.00034125     0.00032583     0.00018149
H        -0.96439688    -0.07848037    -0.61558190    -0.00002415    -0.00080946    -0.00023818
     6
  Step:    40            Position(A)                                  Velocity(au)
C        -0.03240247     0.03119018    -0.13461654    -0.00004012     0.00003080    -0.00075303
N        -0.04988718    -0.04368575     1.43391130    -0.00001551     0.00005606     0.00060232
H         0.90447830     0.04638019    -0.60154062     0.00036356     0.00078726    -0.00022760
H         0.85114747    -0.33273032     1.86952725     0.00020540    -0.00143278     0.00088671
H        -0.92436477    -0.06495005     1.91907440     0.00025293     0.00032879     0.00023350
H        -0.96482777    -0.08306546    -0.61705880    -0.00012834    -0.00082936    -0.00028949
     6
  Step:    41            Position(A)                                  Velocity(au)
C        -0.03263518     0.03135778    -0.13871565    -0.00004281     0.00002910    -0.00071287
N        -0.04992917    -0.04337240     1.43720757     0.00000095     0.00005586     0.00057635
H         0.90688717     0.05083301    -0.60298940     0.00049192     0.00080503    -0.00028820
H         0.85194577    -0.34068558     1.87431928     0.00007622    -0.00140993     0.00082416
H        -0.92320993    -0.06310232     1.92053305     0.00015713     0.00033189     0.00028935
H        -0.96583315    -0.08776219    -0.61882167    -0.00022829    -0.00084998    -0.00033992
     6
  Step:    42            Position(A)                                  Velocity(au)
C        -0.03288135     0.03151570    -0.14259086    -0.00004494     0.00002737    -0.00067380
N        -0.04987659    -0.04306089     1.44035852     0.00001806     0.00005549     0.00055095
H         0.90998105     0.05538546    -0.60476452     0.00060752     0.00082359    -0.00034383
H         0.85200011    -0.34850218     1.87874648    -0.00005892    -0.00138506     0.00075784
H        -0.92260713    -0.06123743     1.92231113     0.00005757     0.00033532     0.00034695
H        -0.96738149    -0.09257358    -0.62086127    -0.00032151    -0.00087102    -0.00038811
     6
  Step:    43            Position(A)                                  Velocity(au)
C        -0.03313769     0.03166375    -0.14624922    -0.00004648     0.00002559    -0.00063604
N        -0.04972729    -0.04275200     1.44336759     0.00003532     0.00005500     0.00052615
H         0.91367968     0.06004141    -0.60683369     0.00070768     0.00084275    -0.00039315
H         0.85128703    -0.35617163     1.88279248    -0.00019685    -0.00135910     0.00068923
H        -0.92256620    -0.05935313     1.92441217    -0.00004195     0.00033922     0.00040417
H        -0.96942792    -0.09750087    -0.62316105    -0.00040575    -0.00089210    -0.00043280
     6
  Step:    44            Position(A)                                  Velocity(au)
C        -0.03340084     0.03180167    -0.14969891    -0.00004742     0.00002376    -0.00059975
N        -0.04948189    -0.04244622     1.44623854     0.00005225     0.00005446     0.00050201
H         0.91788973     0.06480358    -0.60915811     0.00079034     0.00086226    -0.00043512
H         0.84980026    -0.36369080     1.88644900    -0.00033459    -0.00133298     0.00061972
H        -0.92307590    -0.05744645     1.92682797    -0.00013775     0.00034369     0.00045897
H        -0.97191594    -0.10254327    -0.62569805    -0.00047906    -0.00091285    -0.00047292
     6