 Fermi distribution function

Calculation with static geometry


********************************************************************************
 iSCC Total electronic   Diff electronic      SCC error    
   11   -0.53878749E+01   -0.26645353E-12    0.72671380E-08
********************************************************************************

 Total charge:     1.00000000

 Atomic gross charges (e)
 Atom           Charge
    1       0.30652334
    2      -0.19663654
    3       0.15209043
    4       0.27032334
    5       0.31721097
    6       0.15048847

Nr. of electrons (up):     12.00000000
Atom populations (up)
 Atom       Population
    1       3.69347666
    2       5.19663654
    3       0.84790957
    4       0.72967666
    5       0.68278903
    6       0.84951153

l-shell populations (up)
 Atom Sh.   l       Population
    1   1   0       1.29603103
    1   2   1       2.39744564
    2   1   0       1.42110057
    2   2   1       3.77553597
    3   1   0       0.84790957
    4   1   0       0.72967666
    5   1   0       0.68278903
    6   1   0       0.84951153

Orbital populations (up)
 Atom Sh.   l   m       Population  Label
    1   1   0   0       1.29603103  s
    1   2   1  -1       0.51510387  p_y
    1   2   1   0       0.90687777  p_z
    1   2   1   1       0.97546400  p_x
    2   1   0   0       1.42110057  s
    2   2   1  -1       1.29473296  p_y
    2   2   1   0       1.11027940  p_z
    2   2   1   1       1.37052361  p_x
    3   1   0   0       0.84790957  s
    4   1   0   0       0.72967666  s
    5   1   0   0       0.68278903  s
    6   1   0   0       0.84951153  s

Fermi level:                        -0.4887547165 H          -13.2997 eV
Band energy:                        -8.8866295227 H         -241.8175 eV
TS:                                  0.0000000000 H            0.0000 eV
Band free energy (E-TS):            -8.8866295227 H         -241.8175 eV
Extrapolated E(0K):                 -8.8866295227 H         -241.8175 eV
Input / Output electrons (q):     12.0000000000     12.0000000000

Energy H0:                          -5.5235088082 H         -150.3023 eV
Energy SCC:                          0.1356339395 H            3.6908 eV
Total Electronic energy:            -5.3878748688 H         -146.6115 eV
Repulsive energy:                    0.2040844697 H            5.5534 eV
Total energy:                       -5.1837903991 H         -141.0581 eV
Extrapolated to 0:                  -5.1837903991 H         -141.0581 eV
Total Mermin free energy:           -5.1837903991 H         -141.0581 eV
Force related energy:               -5.1837903991 H         -141.0581 eV

SCC converged

Excitation Energy:                   0.0867636347 H            2.3610 eV

Total Forces
    1      0.016323443741      0.010380428407     -0.017827477444
    2     -0.017533432825      0.019083308195      0.014524385526
    3     -0.008226218344      0.007370488518     -0.003698783110
    4     -0.004470149356     -0.017526708122      0.002252555560
    5      0.014206188634     -0.001715413351      0.003840057657
    6     -0.000299831851     -0.017592103646      0.000909261812

Maximal derivative component:        0.190833E-01 au


