    14
  Step:   600            Position(A)                                  Velocity(au)
C        -6.04458897    -0.55508391     0.04504149     0.00061505    -0.00040913     0.00003266
C        -4.67698364    -0.61806284     0.48667419    -0.00012748     0.00016153    -0.00006016
H        -6.53211752    -0.32998502    -0.96469469     0.00153795    -0.00066116     0.00062548
H        -6.69738101    -0.96215985     0.81533290    -0.00028492     0.00069620    -0.00170268
H        -4.30489648    -1.04684170     1.36254059    -0.00026820     0.00079723     0.00031839
C        -3.67629786    -0.00518560    -0.44437599     0.00025501     0.00075038    -0.00017234
C        -2.62261643     0.84998768    -0.42589049     0.00002396     0.00035044    -0.00000404
H        -4.15880401    -0.20711338    -1.37944404    -0.00020844     0.00185361     0.00222001
H        -2.35438776     1.34189457    -1.38626980    -0.00042263     0.00197222     0.00215496
C        -1.67317745     1.11167417     0.60084826     0.00006588    -0.00056065     0.00061407
H        -1.57930936     0.53675683     1.45103512    -0.00246399     0.00126461     0.00285408
N        -0.76154047     2.09143078     0.14287476    -0.00044501    -0.00073325    -0.00082092
H         0.21530255     2.10557143     0.33037568    -0.00102745     0.00201267     0.00040985
H        -1.22448876     2.80575860    -0.32531097    -0.00059742    -0.00123193    -0.00035987
