|===============================================================================
|
|  DFTB+ release 20.1
|
|  Copyright (C) 2006 - 2020  DFTB+ developers group
|
|===============================================================================
|
|  When publishing results obtained with DFTB+, please cite the following
|  reference:
|
|  * DFTB+, a software package for efficient approximate density functional
|    theory based atomistic simulations, J. Chem. Phys. 152, 124101 (2020).
|    [doi: 10.1063/1.5143190]
|
|  You should also cite additional publications crediting the parametrization
|  data you use. Please consult the documentation of the SK-files for the
|  references.
|
|===============================================================================

Reading input file 'dftb_in.hsd'
Parser version: 8

--------------------------------------------------------------------------------
Reading SK-files:
Done.


Processed input in HSD format written to 'dftb_pin.hsd'

Starting initialization...
--------------------------------------------------------------------------------
OpenMP threads:              1
Chosen random seed:          508925596
Mode:                        Static calculation
Self consistent charges:     Yes
SCC-tolerance:                 0.100000E-05
Max. scc iterations:                   1000
Shell resolved Hubbard:      No
Spin polarisation:           No
Nr. of up electrons:             6.000000
Nr. of down electrons:           6.000000
Periodic boundaries:         No
Electronic solver:           Relatively robust
Maximal SCC-cycles:                    1000
Initial charges:             Set automatically (system chrg:   0.100E+01)
Included shells:             C:  s, p
                             N:  s, p
                             H:  s
Spin coupling constants:     C   1(s)-1(s):  -0.455900E-01
                             C   1(s)-2(p):  -0.293000E-01
                             C   2(p)-1(s):  -0.293000E-01
                             C   2(p)-2(p):  -0.275500E-01
                             N   1(s)-1(s):  -0.468700E-01
                             N   1(s)-2(p):  -0.317000E-01
                             N   2(p)-1(s):  -0.317000E-01
                             N   2(p)-2(p):  -0.307200E-01
                             H   1(s)-1(s):  -0.792500E-01
Range separated hybrid:      Yes
  Screening parameter omega:   0.300000E+00
  Range separated algorithm:   MatrixBased
Extra options:
                             Mulliken analysis
                             Force calculation
Force type                   original
                             Eigenvector printing


REKS Calcuation:             Yes
SSR(2,2) Calcuation:         Yes
Energy Functional:           (PPS+OSS)/2
Number of Core Orbitals:                  5
Number of Active Orbitals:                2
Number of Basis:                         12
Number of States:                         2
State-Averaging Weight:          0.500000
                                 0.500000
State of Interest:                        1
Initial Guess:               Diagonalize H0 matrix
Newton-Raphson for FON opt:  Yes
NR max. Iterations:                      50
Level Shifting:              Yes
Shift Value:                     0.300000
W Scale Factor:              C  =    3.000000
                             N  =    3.000000
                             H  =    3.000000
Transition Dipole:           No
Gradient of Microstate:      No
CP-REKS Solver:              Preconditioned Conjugate-Gradient
CG max. Iterations:                     100
CG Tolerance:                  0.100000E-07
Memory for A and Hxc:        Direct Updating Without Saving
Non-Adiabatic Coupling:      Yes

--------------------------------------------------------------------------------

***  Geometry step: 0

  iSCC       reks energy        Diff energy         x_a       SCC error   
    1       -6.2632634791       0.0000000000     0.999647    1.20306854
    2       -6.2749512799      -0.0116878007     0.999844    0.08218439
    3       -6.2786360645      -0.0036847846     0.999910    0.03251362
    4       -6.2804386267      -0.0018025623     0.999938    0.01433041
    5       -6.2814157410      -0.0009771143     0.999952    0.00788349
    6       -6.2819652419      -0.0005495009     0.999960    0.00664537
    7       -6.2822775330      -0.0003122911     0.999964    0.00537059
    8       -6.2824551583      -0.0001776253     0.999967    0.00421730
    9       -6.2825561046      -0.0001009463     0.999968    0.00338226
   10       -6.2826135177      -0.0000574131     0.999969    0.00275380
   11       -6.2826462785      -0.0000327608     0.999970    0.00222725
   12       -6.2826650789      -0.0000188004     0.999970    0.00179330
   13       -6.2826759498      -0.0000108709     0.999970    0.00143941
   14       -6.2826822913      -0.0000063415     0.999970    0.00115278
   15       -6.2826860255      -0.0000037342     0.999971    0.00092173
   16       -6.2826882454      -0.0000022198     0.999971    0.00073609
   17       -6.2826895770      -0.0000013316     0.999971    0.00058730
   18       -6.2826903824      -0.0000008055     0.999971    0.00046825
   19       -6.2826908733      -0.0000004909     0.999971    0.00037312
   20       -6.2826911744      -0.0000003011     0.999971    0.00029719
   21       -6.2826913601      -0.0000001857     0.999971    0.00023662
   22       -6.2826914752      -0.0000001151     0.999971    0.00018835
   23       -6.2826915468      -0.0000000716     0.999971    0.00014989
   24       -6.2826915915      -0.0000000447     0.999971    0.00011926
   25       -6.2826916195      -0.0000000280     0.999971    0.00009487
   26       -6.2826916370      -0.0000000175     0.999971    0.00007547
   27       -6.2826916480      -0.0000000110     0.999971    0.00006002
   28       -6.2826916549      -0.0000000069     0.999971    0.00004773
   29       -6.2826916593      -0.0000000044     0.999971    0.00003796
   30       -6.2826916620      -0.0000000027     0.999971    0.00003018
   31       -6.2826916638      -0.0000000017     0.999971    0.00002400
   32       -6.2826916649      -0.0000000011     0.999971    0.00001908
   33       -6.2826916655      -0.0000000007     0.999971    0.00001517
   34       -6.2826916660      -0.0000000004     0.999971    0.00001206
   35       -6.2826916663      -0.0000000003     0.999971    0.00000959
   36       -6.2826916664      -0.0000000002     0.999971    0.00000762
   37       -6.2826916665      -0.0000000001     0.999971    0.00000606
   38       -6.2826916666      -0.0000000001     0.999971    0.00000482
   39       -6.2826916667      -0.0000000000     0.999971    0.00000383
   40       -6.2826916667      -0.0000000000     0.999971    0.00000305
   41       -6.2826916667      -0.0000000000     0.999971    0.00000242
   42       -6.2826916667      -0.0000000000     0.999971    0.00000192
   43       -6.2826916667      -0.0000000000     0.999971    0.00000153
   44       -6.2826916667      -0.0000000000     0.999971    0.00000122
   45       -6.2826916667      -0.0000000000     0.999971    0.00000097
  
--------------------------------------------------
 Final SA-REKS(2,2) energy:      -6.28269167
  
 State     Energy      FON(1)    FON(2)   Spin
  PPS   -6.41313796   1.999941  0.000059  0.00
  OSS   -6.15224538   1.000000  1.000000  0.00
 Trip   -6.23092918   1.000000  1.000000  1.00
--------------------------------------------------

 Lagrangian Wab:   0.00385383  0.00385370

--------------------------------------------------
 SSR: 2SI-2SA-REKS(2,2) Hamiltonian matrix
               PPS           OSS
   PPS    -6.41313796    0.00542050
   OSS     0.00542050   -6.15224538
--------------------------------------------------

----------------------------------------------------------------
 SSR: 2SI-2SA-REKS(2,2) states
                    E_n       C_{PPS}    C_{OSS}
 SSR state  1   -6.41325053  -0.999784   0.020763
 SSR state  2   -6.15213281  -0.020763  -0.999784
----------------------------------------------------------------

 unrelaxed SSR FONs for S0:  1.999510  0.000490

Total Energy:                       -6.4132505273 H         -174.5134 eV
Extrapolated to 0:                  -6.4132505273 H         -174.5134 eV

----------------------------------------------------------------------------------
 Solving CP-REKS equation for  1 state vector...
----------------------------------------------------------------------------------
  CG solver: Constructing Y initial guess
  CG solver: Iteration    1    eps =    0.000068595797
  CG solver: Iteration    2    eps =    0.000017362922
  CG solver: Iteration    3    eps =    0.000000561696
  CG solver: Iteration    4    eps =    0.000000165594
  CG solver: Iteration    5    eps =    0.000000008086
  Convergence reached in CG solver after    5 iterations
  CG solver: Calculating converged R, Z, Q2 matrix
----------------------------------------------------------------------------------

----------------------------------------------------------------------------------
 Solving CP-REKS equation for SI between  1 and  2 state vectors...
----------------------------------------------------------------------------------
  CG solver: Constructing Y initial guess
  CG solver: Iteration    1    eps =    0.001005414290
  CG solver: Iteration    2    eps =    0.000629046365
  CG solver: Iteration    3    eps =    0.000205732835
  CG solver: Iteration    4    eps =    0.000002619817
  CG solver: Iteration    5    eps =    0.000000349418
  CG solver: Iteration    6    eps =    0.000000008298
  Convergence reached in CG solver after    6 iterations
  CG solver: Calculating converged R, Z, Q2 matrix
----------------------------------------------------------------------------------

--------------------------------------------------
 Gradient Information
--------------------------------------------------
           1 st state (SSR)
    -0.00314937    -0.00902553     0.04445743
     0.01272714     0.00640065    -0.05655497
    -0.00893394     0.00541491    -0.00370558
    -0.01434537    -0.00269273     0.00614712
     0.00483432     0.00125119     0.00953451
     0.00886722    -0.00134849     0.00012150

           2 st state (SSR)
     0.00205716    -0.00689644     0.15539453
    -0.00465157     0.00656743    -0.18570408
     0.00598520     0.01545234     0.01740137
     0.01058671    -0.00254196    -0.00264346
    -0.00631090     0.00571485    -0.00204556
    -0.00766660    -0.01829621     0.01759720
--------------------------------------------------
 Coupling Information
--------------------------------------------------
 between  1 and  2 states
--------------------------------------------------
 g vector - difference gradient
    -0.00264518    -0.00109732    -0.05567201
     0.00875005     0.00003155     0.06474918
    -0.00779453    -0.00506629    -0.01056667
    -0.01285311    -0.00024293     0.00437838
     0.00591077    -0.00217187     0.00584809
     0.00863199     0.00854685    -0.00873698

 h vector - derivative coupling
    -0.00095471    -0.00076665    -0.00374438
     0.00128026     0.00276781     0.00286146
    -0.00790590    -0.00104068    -0.00009821
    -0.00905596    -0.00403028    -0.00049808
     0.00802221     0.00148929     0.00127690
     0.00861411     0.00158051     0.00020231

 G vector - GDV
    -0.00260326    -0.00106454    -0.05546855
     0.00868935    -0.00008339     0.06457455
    -0.00745957    -0.00501871    -0.01055348
    -0.01246604    -0.00007539     0.00439529
     0.00557261    -0.00223183     0.00579003
     0.00826691     0.00847386    -0.00873785

 H vector - DCV - non-adiabatic coupling
    -0.00407368    -0.00310798    -0.02317930
     0.00629002     0.01059573     0.02124415
    -0.03149039    -0.00478758    -0.00205588
    -0.03669525    -0.01546004    -0.00120967
     0.03163589     0.00535328     0.00581578
     0.03433341     0.00740658    -0.00061507
--------------------------------------------------


--------------------------------------------------------------------------------
DFTB+ running times                          cpu [s]             wall clock [s]
--------------------------------------------------------------------------------
SCC                                    +     0.03  ( 70.0%)      0.03  ( 65.9%)
Post-SCC processing                    +     0.01  ( 24.9%)      0.01  ( 25.0%)
  Force calculation                          0.01  ( 24.1%)      0.01  ( 22.7%)
--------------------------------------------------------------------------------
Missing                                +     0.00  (  5.1%)      0.00  (  9.1%)
Total                                  =     0.04  (100.0%)      0.04  (100.0%)
--------------------------------------------------------------------------------
