     6
  Step:     0            Position(A)                                  Velocity(au)
C        -0.03423559     0.00273778     0.03319476    -0.00010589     0.00003929    -0.00026223
N        -0.04549408    -0.05771940     1.27645791     0.00022385     0.00005292     0.00023342
H         0.92528167     0.05032087    -0.54080970     0.00010326    -0.00039704     0.00017773
H         0.81016127    -0.06803660     1.91505652    -0.00089791    -0.00021512    -0.00097296
H        -0.90466011     0.00148671     1.86259773    -0.00168542    -0.00048968     0.00055913
H        -1.00356542     0.11591703    -0.47846143     0.00063105    -0.00010164     0.00011709
     6
  Step:     1            Position(A)                                  Velocity(au)
C        -0.03480769     0.00294807     0.03131960    -0.00010257     0.00003737    -0.00042141
N        -0.04425391    -0.05746832     1.27814594     0.00022722     0.00003893     0.00038222
H         0.92593846     0.04829354    -0.53972977     0.00013430    -0.00034383     0.00021662
H         0.80514497    -0.06907663     1.90940050    -0.00092216    -0.00016415    -0.00108319
H        -0.91396449    -0.00105499     1.86550405    -0.00169777    -0.00044044     0.00049394
H        -1.00031887     0.11553176    -0.47790494     0.00055024    -0.00003783     0.00008257
     6
  Step:     2            Position(A)                                  Velocity(au)
C        -0.03535792     0.00314669     0.02858372    -0.00009779     0.00003493    -0.00057524
N        -0.04300783    -0.05729338     1.28064019     0.00022556     0.00002503     0.00052642
H         0.92675115     0.04655868    -0.53843943     0.00015919    -0.00028941     0.00025368
H         0.80007092    -0.06983279     1.90320422    -0.00091563    -0.00011107    -0.00116624
H        -0.92323720    -0.00333262     1.86800243    -0.00167215    -0.00039207     0.00041111
H        -0.99754471     0.11550310    -0.47755793     0.00045931     0.00002865     0.00004073
     6
  Step:     3            Position(A)                                  Velocity(au)
C        -0.03587869     0.00333058     0.02501955    -0.00009165     0.00003192    -0.00072138
N        -0.04178360    -0.05719421     1.28391124     0.00021861     0.00001126     0.00066337
H         0.92768187     0.04512395    -0.53695146     0.00017622    -0.00023363     0.00028732
H         0.79511703    -0.07029303     1.89662792    -0.00087436    -0.00005614    -0.00121658
H        -0.93227775    -0.00534896     1.87000655    -0.00160985    -0.00034395     0.00031448
H        -0.99528855     0.11584550    -0.47745889     0.00036207     0.00009704    -0.00000764
     6
  Step:     4            Position(A)                                  Velocity(au)
C        -0.03636310     0.00349675     0.02067176    -0.00008431     0.00002844    -0.00085708
N        -0.04061016    -0.05716990     1.28791585     0.00020622    -0.00000217     0.00079012
H         0.92868393     0.04399623    -0.53528822     0.00018416    -0.00017722     0.00031554
H         0.79048115    -0.07044855     1.88986100    -0.00079534    -0.00000065    -0.00122920
H        -0.94089368    -0.00710499     1.87145162    -0.00151269    -0.00029628     0.00020827
H        -0.99357364     0.11656746    -0.47764172     0.00026277     0.00016554    -0.00006143
     6
  Step:     5            Position(A)                                  Velocity(au)
C        -0.03680533     0.00364317     0.01559970    -0.00007602     0.00002473    -0.00097913
N        -0.03951716    -0.05721810     1.29259513     0.00018838    -0.00001490     0.00090340
H         0.92970591     0.04317619    -0.53348354     0.00018297    -0.00012183     0.00033623
H         0.78637580    -0.07030015     1.88311824    -0.00067696     0.00005308    -0.00120050
H        -0.94890308    -0.00860522     1.87229552    -0.00138337    -0.00025016     0.00009678
H        -0.99240050     0.11766489    -0.47813401     0.00016522     0.00023127    -0.00011915
     6
  Step:     6            Position(A)                                  Velocity(au)
C        -0.03720087     0.00376935     0.00988087    -0.00006702     0.00002106    -0.00108389
N        -0.03853400    -0.05733407     1.29787209     0.00016536    -0.00002645     0.00099969
H         0.93070044     0.04265355    -0.53158267     0.00017436    -0.00006954     0.00034758
H         0.78302047    -0.06986353     1.87663037    -0.00051955     0.00010227    -0.00112933
H        -0.95613968    -0.00986196     1.87251827    -0.00122592    -0.00020708    -0.00001579
H        -0.99175280     0.11911622    -0.47895481     0.00007180     0.00029103    -0.00017888
     6
  Step:     7            Position(A)                                  Velocity(au)
C        -0.03754652     0.00387607     0.00361336    -0.00005761     0.00001759    -0.00116787
N        -0.03768853    -0.05751058     1.30365032     0.00013770    -0.00003644     0.00107578
H         0.93163411     0.04240712    -0.52963973     0.00016142    -0.00002203     0.00034846
H         0.78063026    -0.06916921     1.87062933    -0.00032612     0.00014471    -0.00101776
H        -0.96246014    -0.01089528     1.87212096    -0.00104596    -0.00016816    -0.00012544
H        -0.99160651     0.12088325    -0.48011215    -0.00001647     0.00034234    -0.00023842
     6
  Step:     8            Position(A)                                  Velocity(au)
C        -0.03784055     0.00396463    -0.00308581    -0.00004809     0.00001436    -0.00122866
N        -0.03700511    -0.05773863     1.30981637     0.00010637    -0.00004466     0.00112961
H         0.93249270     0.04240895    -0.52771377     0.00014763     0.00001991     0.00033854
H         0.77939964    -0.06825685     1.86533035    -0.00010294     0.00017941    -0.00087130
H        -0.96775286    -0.01172901     1.87112553    -0.00085069    -0.00013374    -0.00022832
H        -0.99193566     0.12291721    -0.48160201    -0.00009919     0.00038402    -0.00029569
     6
  Step:     9            Position(A)                                  Velocity(au)
C        -0.03808277     0.00403617    -0.01008758    -0.00003877     0.00001132    -0.00126576
N        -0.03650240    -0.05800856     1.31624676     0.00007266    -0.00005110     0.00116096
H         0.93328042     0.04262911    -0.52586460     0.00013602     0.00005624     0.00031833
H         0.77948231    -0.06716858     1.86091329     0.00014052     0.00020651    -0.00069857
H        -0.97194635    -0.01238667     1.86957495    -0.00064843    -0.00010361    -0.00032093
H        -0.99271264     0.12516555    -0.48340946    -0.00017597     0.00041611    -0.00034912
     6
  Step:    10            Position(A)                                  Velocity(au)
C        -0.03827477     0.00409145    -0.01726160    -0.00002999     0.00000843    -0.00128107
N        -0.03619131    -0.05831091     1.32281842     0.00003811    -0.00005592     0.00117188
H         0.93401604     0.04303877    -0.52414862     0.00012879     0.00008742     0.00028906
H         0.78097341    -0.06594402     1.85750682     0.00039295     0.00022695    -0.00051011
H        -0.97501493    -0.01288937     1.86753135    -0.00044772    -0.00007726    -0.00040061
H        -0.99390645     0.12757740    -0.48551189    -0.00024637     0.00043962    -0.00039800
     6
  Step:    11            Position(A)                                  Velocity(au)
C        -0.03841991     0.00413097    -0.02448914    -0.00002203     0.00000565    -0.00127866
N        -0.03607395    -0.05863726     1.32942086     0.00000421    -0.00005942     0.00116645
H         0.93472827     0.04361192    -0.52261503     0.00012734     0.00011426     0.00025245
H         0.78389980    -0.06461721     1.85517874     0.00064308     0.00024213    -0.00031680
H        -0.97697957    -0.01325521     1.86507130    -0.00025619    -0.00005411    -0.00046598
H        -0.99548226     0.13010769    -0.48788374    -0.00031020     0.00045626    -0.00044264
     6
  Step:    12            Position(A)                                  Velocity(au)
C        -0.03852313     0.00415514    -0.03167494    -0.00001511     0.00000295    -0.00126387
N        -0.03614390    -0.05898077     1.33596698    -0.00002781    -0.00006196     0.00114987
H         0.93545145     0.04432672    -0.52130297     0.00013236     0.00013773     0.00021037
H         0.78822232    -0.06321472     1.85393574     0.00088144     0.00025360    -0.00012813
H        -0.97790277    -0.01349927     1.86227868    -0.00007961    -0.00003351    -0.00051688
H        -0.99740310     0.13272045    -0.49050147    -0.00036773     0.00046808    -0.00048408
     6
  Step:    13            Position(A)                                  Velocity(au)
C        -0.03859048     0.00416429    -0.03875345    -0.00001455     0.00000050    -0.00193413
N        -0.03638782    -0.05933654     1.34239855    -0.00008885    -0.00009949     0.00175537
H         0.93622216     0.04516639    -0.52024080     0.00022436     0.00024747     0.00025599
H         0.79384795    -0.06175497     1.85373260     0.00171475     0.00040935     0.00007610
H        -0.97787802    -0.01363344     1.85923768     0.00012208    -0.00002303    -0.00086266
H        -0.99963250     0.13539053    -0.49334721    -0.00065327     0.00074293    -0.00081549
     6
  Step:    14            Position(A)                                  Velocity(au)
C        -0.03866199     0.00414964    -0.04921037    -0.00000705    -0.00000358    -0.00108983
N        -0.03695490    -0.05987653     1.35193360    -0.00006758    -0.00005658     0.00099867
H         0.93780365     0.04657367    -0.51927139     0.00020824     0.00015478     0.00005480
H         0.80401356    -0.05951318     1.85470524     0.00115020     0.00023782     0.00015725
H        -0.97684365    -0.01379320     1.85438022     0.00014191    -0.00002040    -0.00052230
H        -1.00368209     0.13958034    -0.49832953    -0.00047720     0.00045679    -0.00058116
     6
  Step:    15            Position(A)                                  Velocity(au)
C        -0.03869140     0.00412239    -0.05528128    -0.00000391    -0.00000604    -0.00106045
N        -0.03740246    -0.06020016     1.35748984    -0.00008903    -0.00005799     0.00096956
H         0.93903541     0.04750265    -0.51910099     0.00022988     0.00017393     0.00000526
H         0.81100040    -0.05814928     1.85601501     0.00130997     0.00024499     0.00029688
H        -0.97569564    -0.01385538     1.85140190     0.00025391    -0.00000185    -0.00052682
H        -1.00647907     0.14217205    -0.50170197    -0.00051002     0.00046079    -0.00061232
     6
  Step:    16            Position(A)                                  Velocity(au)
C        -0.03870606     0.00408147    -0.06117521    -0.00000181    -0.00000848    -0.00103558
N        -0.03795945    -0.06053079     1.36287293    -0.00010701    -0.00005956     0.00094504
H         0.94039732     0.04853607    -0.51921203     0.00025588     0.00019342    -0.00004497
H         0.81879374    -0.05674898     1.85805493     0.00144535     0.00025274     0.00041831
H        -0.97397887    -0.01381403     1.84843616     0.00034549     0.00001662    -0.00052187
H        -1.00943653     0.14477931    -0.50523824    -0.00053810     0.00046597    -0.00064413
     6
  Step:    17            Position(A)                                  Velocity(au)
C        -0.03871177     0.00402712    -0.06691875    -0.00000069    -0.00001088    -0.00101272
N        -0.03860501    -0.06086949     1.36810988    -0.00012107    -0.00006121     0.00092282
H         0.94191085     0.04967627    -0.51960631     0.00028486     0.00021316    -0.00009571
H         0.82724273    -0.05530912     1.86071582     0.00155035     0.00026047     0.00052010
H        -0.97181314    -0.01366860     1.84553733     0.00041532     0.00003555    -0.00050574
H        -1.01252612     0.14740848    -0.50894050    -0.00055993     0.00047114    -0.00067494
     6
  Step:    18            Position(A)                                  Velocity(au)
C        -0.03871381     0.00395958    -0.07252460    -0.00000047    -0.00001322    -0.00098979
N        -0.03931624    -0.06121681     1.37321485    -0.00013078    -0.00006285     0.00090096
H         0.94358971     0.05092492    -0.52028465     0.00031532     0.00023291    -0.00014646
H         0.83616827    -0.05382988     1.86388361     0.00161986     0.00026759     0.00060092
H        -0.96932445    -0.01341563     1.84276842     0.00046176     0.00005530    -0.00047708
H        -1.01571159     0.15005927    -0.51280216    -0.00057404     0.00047517    -0.00070313
     6
  Step:    19            Position(A)                                  Velocity(au)
C        -0.03871702     0.00387923    -0.07799386    -0.00000106    -0.00001547    -0.00096545
N        -0.04006834    -0.06157277     1.37819105    -0.00013586    -0.00006440     0.00087816
H         0.94543910     0.05228239    -0.52124505     0.00034575     0.00025244    -0.00019647
H         0.84536784    -0.05231496     1.86743977     0.00165071     0.00027356     0.00066009
H        -0.96664638    -0.01304979     1.84019917     0.00048353     0.00007611    -0.00043518
H        -1.01894922     0.15272527    -0.51680805    -0.00057937     0.00047722    -0.00072744
     6
  Step:    20            Position(A)                                  Velocity(au)
C        -0.03872572     0.00378661    -0.08332015    -0.00000238    -0.00001760    -0.00093904
N        -0.04083543    -0.06193696     1.38303441    -0.00013624    -0.00006582     0.00085375
H         0.94745585     0.05374769    -0.52248152     0.00037472     0.00027156    -0.00024493
H         0.85462638    -0.05077091     1.87126464     0.00164214     0.00027802     0.00069781
H        -0.96391768    -0.01256454     1.83790225     0.00048015     0.00009812    -0.00038012
H        -1.02219003     0.15539547    -0.52093638    -0.00057539     0.00047676    -0.00074707
     6
  Step:    21            Position(A)                                  Velocity(au)
C        -0.03874366     0.00368241    -0.08849345    -0.00000431    -0.00001960    -0.00091047
N        -0.04159169    -0.06230872     1.38773694    -0.00013207    -0.00006709     0.00082751
H         0.94962895     0.05531876    -0.52398370     0.00040099     0.00029016    -0.00029109
H         0.86372883    -0.04920637     1.87524206     0.00159554     0.00028072     0.00071521
H        -0.96127773    -0.01195268     1.83594894     0.00045216     0.00012141    -0.00031268
H        -1.02538271     0.15805602    -0.52516117    -0.00056208     0.00047355    -0.00076164
     6
  Step:    22            Position(A)                                  Velocity(au)
C        -0.03877395     0.00356744    -0.09350300    -0.00000673    -0.00002144    -0.00087998
N        -0.04231251    -0.06268728     1.39228942    -0.00012369    -0.00006821     0.00079958
H         0.95194061     0.05699287    -0.52573707     0.00042351     0.00030819    -0.00033426
H         0.87247126    -0.04763123     1.87926372     0.00151414     0.00028157     0.00071419
H        -0.95886060    -0.01120670     1.83440518     0.00040122     0.00014601    -0.00023425
H        -1.02847643     0.16069172    -0.52945468    -0.00053987     0.00046754    -0.00077115
     6
  Step:    23            Position(A)                                  Velocity(au)
C        -0.03881898     0.00344258    -0.09833933    -0.00000951    -0.00002311    -0.00084804
N        -0.04297561    -0.06307189     1.39668331    -0.00011161    -0.00006920     0.00077032
H         0.95436750     0.05876709    -0.52772367     0.00044147     0.00032571    -0.00037396
H         0.88067025    -0.04605590     1.88323301     0.00140242     0.00028057     0.00069718
H        -0.95678859    -0.01031905     1.83332798     0.00033003     0.00017192    -0.00014673
H        -1.03142326     0.16328729    -0.53378946    -0.00050955     0.00045889    -0.00077593
     6
  Step:    24            Position(A)                                  Velocity(au)
C        -0.03888045     0.00330875    -0.10299542    -0.00001254    -0.00002463    -0.00081523
N        -0.04356184    -0.06346188     1.40091194    -0.00009647    -0.00007009     0.00074020
H         0.95688211     0.06063866    -0.52992294     0.00045430     0.00034281    -0.00040985
H         0.88816906    -0.04449071     1.88706747     0.00126557     0.00027779     0.00066689
H        -0.95516646    -0.00928231     1.83276278     0.00024218     0.00019914    -0.00005234
H        -1.03418001     0.16582822    -0.53814000    -0.00047211     0.00044781    -0.00077651
     6
  Step:    25            Position(A)                                  Velocity(au)
C        -0.03895938     0.00316684    -0.10746730    -0.00001569    -0.00002599    -0.00078212
N        -0.04405575    -0.06385672     1.40497120    -0.00007894    -0.00007092     0.00070971
H         0.95945419     0.06260541    -0.53231270     0.00046165     0.00035963    -0.00044177
H         0.89484061    -0.04294551     1.89070002     0.00110903     0.00027337     0.00062612
H        -0.95407696    -0.00808931     1.83274188     0.00014188     0.00022763     0.00004650
H        -1.03670933     0.16830137    -0.54248383    -0.00042866     0.00043461    -0.00077351
     6
  Step:    26            Position(A)                                  Velocity(au)
C        -0.03905615     0.00301769    -0.11175398    -0.00001886    -0.00002722    -0.00074921
N        -0.04444585    -0.06425604     1.40885964    -0.00005974    -0.00007170     0.00067931
H         0.96205190     0.06466596    -0.53487007     0.00046336     0.00037636    -0.00046967
H         0.90058851    -0.04142941     1.89407907     0.00093814     0.00026743     0.00057759
H        -0.95357763    -0.00673325     1.83328356     0.00003375     0.00025732     0.00014735
H        -1.03898033     0.17069520    -0.54680218    -0.00038035     0.00041956    -0.00076765
     6
  Step:    27            Position(A)                                  Velocity(au)
C        -0.03917062     0.00286208    -0.11585709    -0.00002198    -0.00002832    -0.00071688
N        -0.04472471    -0.06465961     1.41257827    -0.00003956    -0.00007246     0.00064938
H         0.96464298     0.06681999    -0.53757213     0.00045941     0.00039320    -0.00049360
H         0.90534611    -0.03995072     1.89716804     0.00075792     0.00026012     0.00052384
H        -0.95369904    -0.00520779     1.83439199    -0.00007744     0.00028815     0.00024778
H        -1.04096855     0.17299975    -0.55108017    -0.00032827     0.00040293    -0.00075959
     6
  Step:    28            Position(A)                                  Velocity(au)
C        -0.03930220     0.00270065    -0.11978036    -0.00002495    -0.00002931    -0.00068544
N        -0.04488880    -0.06506731     1.41613019    -0.00001908    -0.00007322     0.00062021
H         0.96719553     0.06906826    -0.54039647     0.00044992     0.00041034    -0.00051367
H         0.90907430    -0.03851704     1.89994409     0.00057293     0.00025153     0.00046715
H        -0.95444462    -0.00350710     1.83605778    -0.00018696     0.00032003     0.00034549
H        -1.04265575     0.17520644    -0.55530671    -0.00027348     0.00038490    -0.00074997
     6
  Step:    29            Position(A)                                  Velocity(au)
C        -0.03944990     0.00253397    -0.12352895    -0.00002774    -0.00003023    -0.00065504
N        -0.04493824    -0.06547910     1.41952007     0.00000111    -0.00007398     0.00059202
H         0.96967880     0.07141275    -0.54332147     0.00043513     0.00042801    -0.00053005
H         0.91175869    -0.03713542     1.90239665     0.00038724     0.00024172     0.00040953
H        -0.95579165    -0.00162586     1.83825896    -0.00029040     0.00035287     0.00043838
H        -1.04402946     0.17730779    -0.55947424    -0.00021692     0.00036562    -0.00073935
     6
  Step:    30            Position(A)                                  Velocity(au)
C        -0.03961251     0.00236249    -0.12710883    -0.00003029    -0.00003107    -0.00062572
N        -0.04487639    -0.06589497     1.42275362     0.00002046    -0.00007474     0.00056489
H         0.97206372     0.07385675    -0.54632658     0.00041536     0.00044644    -0.00054290
H         0.91340673    -0.03581270     1.90452588     0.00020447     0.00023068     0.00035277
H        -0.95769357     0.00044078     1.84096237    -0.00038375     0.00038662     0.00052459
H        -1.04508259     0.17929696    -0.56357847    -0.00015949     0.00034515    -0.00072828
     6
  Step:    31            Position(A)                                  Velocity(au)
C        -0.03978859     0.00218656    -0.13052604    -0.00003258    -0.00003187    -0.00059743
N        -0.04470947    -0.06631490     1.42583692     0.00003850    -0.00007550     0.00053882
H         0.97432348     0.07640506    -0.54939234     0.00039104     0.00046594    -0.00055241
H         0.91404520    -0.03455589     1.90634146     0.00002786     0.00021831     0.00029845
H        -0.96008293     0.00269745     1.84412514    -0.00046362     0.00042125     0.00060253
H        -1.04581297     0.18116735    -0.56761811    -0.00010205     0.00032345    -0.00071725
     6
  Step:    32            Position(A)                                  Velocity(au)
C        -0.03997664     0.00200635    -0.13378602    -0.00003461    -0.00003264    -0.00056999
N        -0.04444613    -0.06673882     1.42877578     0.00005483    -0.00007625     0.00051371
H         0.97643417     0.07906431    -0.55250053     0.00036275     0.00048688    -0.00055879
H         0.91371808    -0.03337275     1.90786145    -0.00013969     0.00020440     0.00024799
H        -0.96287520     0.00514891     1.84769649    -0.00052728     0.00045687     0.00067091
H        -1.04622310     0.18291200    -0.57159481    -0.00004539     0.00030039    -0.00070681
     6
  Step:    33            Position(A)                                  Velocity(au)
C        -0.04017520     0.00182193    -0.13689310    -0.00003639    -0.00003343    -0.00054314
N        -0.04409695    -0.06716660     1.43157531     0.00006916    -0.00007695     0.00048937
H         0.97837556     0.08184374    -0.55563430     0.00033125     0.00050985    -0.00056232
H         0.91248480    -0.03227269     1.90911159    -0.00029552     0.00018850     0.00020272
H        -0.96597289     0.00780090     1.85161950    -0.00057278     0.00049375     0.00072878
H        -1.04632002     0.18452287    -0.57551346     0.00000964     0.00027567    -0.00069758
     6
  Step:    34            Position(A)                                  Velocity(au)
C        -0.04038297     0.00163312    -0.13984994    -0.00003800    -0.00003427    -0.00051652
N        -0.04367399    -0.06759799     1.43423939     0.00008126    -0.00007761     0.00046554
H         0.98013239     0.08475651    -0.55877852     0.00029764     0.00053579    -0.00056336
H         0.91041880    -0.03126822     1.91012475    -0.00043722     0.00016981     0.00016393
H        -0.96927005     0.01066143     1.85583293    -0.00059899     0.00053254     0.00077548
H        -1.04611548     0.18598972    -0.57938299     0.00006212     0.00024871    -0.00069051
     6
  Step:    35            Position(A)                                  Velocity(au)
C        -0.04059919     0.00143949    -0.14265680    -0.00003955    -0.00003525    -0.00048937
N        -0.04319022    -0.06803258     1.43677015     0.00009103    -0.00007815     0.00044167
H         0.98169687     0.08782245    -0.56192067     0.00026382     0.00056643    -0.00056264
H         0.90760603    -0.03037785     1.91094081    -0.00056265     0.00014668     0.00013292
H        -0.97265680     0.01374333     1.86027284    -0.00060558     0.00057452     0.00081063
H        -1.04562685     0.18729817    -0.58321862     0.00011076     0.00021845    -0.00068723
     6
  Step:    36            Position(A)                                  Velocity(au)
C        -0.04082410     0.00123996    -0.14530796    -0.00004137    -0.00003658    -0.00045957
N        -0.04265878    -0.06846960     1.43916544     0.00009854    -0.00007845     0.00041627
H         0.98307476     0.09107401    -0.56505370     0.00023391     0.00060529    -0.00056217
H         0.90414346    -0.02963222     1.91160719    -0.00066996     0.00011567     0.00011129
H        -0.97602412     0.01706912     1.86487395    -0.00059328     0.00062224     0.00083410
H        -1.04488011     0.18842607    -0.58704771     0.00015295     0.00018294    -0.00069161
     6
  Step:    37            Position(A)                                  Velocity(au)
C        -0.04106039     0.00103166    -0.14777999    -0.00004408    -0.00003900    -0.00041965
N        -0.04209173    -0.06890711     1.44141064     0.00010413    -0.00007796     0.00038412
H         0.98430441     0.09457007    -0.56818755     0.00021996     0.00065829    -0.00057030
H         0.90013753    -0.02908842     1.91218142    -0.00075721     0.00007071     0.00010158
H        -0.97927051     0.02067987     1.86957114    -0.00056466     0.00067791     0.00084648
H        -1.04392175     0.18933749    -0.59092845     0.00018015     0.00014124    -0.00071509
     6
  Step:    38            Position(A)                                  Velocity(au)
C        -0.04131523     0.00080539    -0.14998380    -0.00004727    -0.00004382    -0.00035571
N        -0.04149856    -0.06933827     1.44344541     0.00010744    -0.00007549     0.00033556
H         0.98552560     0.09840891    -0.57140820     0.00023940     0.00071609    -0.00060783
H         0.89570634    -0.02884435     1.91273903    -0.00082079     0.00002108     0.00010545
H        -0.98231580     0.02462258     1.87430568    -0.00052358     0.00072309     0.00085138
H        -1.04287286     0.18999981    -0.59501544     0.00017517     0.00011102    -0.00077337
     6
  Step:    39            Position(A)                                  Velocity(au)
C        -0.04158680     0.00054366    -0.15174144    -0.00005431    -0.00005604    -0.00030055
N        -0.04089521    -0.06974786     1.44514764     0.00011868    -0.00007871     0.00030225
H         0.98697052     0.10254488    -0.57495671     0.00031117     0.00083491    -0.00074799
H         0.89099663    -0.02885361     1.91335583    -0.00095005    -0.00000945     0.00013268
H        -0.98510149     0.02873268     1.87905262    -0.00051980     0.00081099     0.00094254
H        -1.04197089     0.19057387    -0.59954124     0.00015653     0.00012515    -0.00094606
     6
  Step:    40            Position(A)                                  Velocity(au)
C        -0.04187300     0.00023304    -0.15337869    -0.00004910    -0.00005555    -0.00028899
N        -0.04025293    -0.07018743     1.44679153     0.00011128    -0.00007939     0.00028925
H         0.98848651     0.10710185    -0.57908308     0.00023259     0.00081274    -0.00072966
H         0.88564199    -0.02879330     1.91409476    -0.00096359     0.00002155     0.00013902
H        -0.98776400     0.03317076     1.88427359    -0.00042941     0.00079469     0.00092764
H        -1.04098483     0.19132841    -0.60470958     0.00019914     0.00013623    -0.00091294
     6
  Step:    41            Position(A)                                  Velocity(au)
C        -0.04213313    -0.00007444    -0.15495704    -0.00004466    -0.00005505    -0.00027856
N        -0.03965705    -0.07063126     1.44836615     0.00010197    -0.00008019     0.00027683
H         0.98955851     0.11158828    -0.58307567     0.00015281     0.00080549    -0.00070345
H         0.88027477    -0.02861378     1.91490273    -0.00095505     0.00003824     0.00015718
H        -0.98987953     0.03757517     1.88937447    -0.00032505     0.00079375     0.00090159
H        -1.03975510     0.19208969    -0.60969958     0.00024233     0.00013292    -0.00088292
     6
  Step:    42            Position(A)                                  Velocity(au)
C        -0.04236971    -0.00037922    -0.15647693    -0.00004052    -0.00005463    -0.00026812
N        -0.03911874    -0.07107938     1.44987052     0.00009068    -0.00008099     0.00026416
H         0.99018615     0.11606072    -0.58690702     0.00007308     0.00080612    -0.00067327
H         0.87501964    -0.02836802     1.91584294    -0.00092443     0.00004776     0.00018624
H        -0.99137926     0.04199906     1.89430131    -0.00020965     0.00079990     0.00086685
H        -1.03828953     0.19280677    -0.61452964     0.00028363     0.00012273    -0.00085577
     6
  Step:    43            Position(A)                                  Velocity(au)
C        -0.04258358    -0.00068179    -0.15793786    -0.00003646    -0.00005430    -0.00025764
N        -0.03864890    -0.07153168     1.45130294     0.00007753    -0.00008178     0.00025122
H         0.99037096     0.12055022    -0.59056062    -0.00000625     0.00081126    -0.00064057
H         0.86999755    -0.02808281     1.91697321    -0.00087281     0.00005363     0.00022520
H        -0.99221027     0.04646789     1.89901152    -0.00008607     0.00080956     0.00082528
H        -1.03660186     0.19345411    -0.61921348     0.00032227     0.00010901    -0.00083079
     6
  Step:    44            Position(A)                                  Velocity(au)
C        -0.04277487    -0.00098256    -0.15933992    -0.00003240    -0.00005403    -0.00024722
N        -0.03825726    -0.07198814     1.45266207     0.00006276    -0.00008257     0.00023806
H         0.99011668     0.12507558    -0.59402519    -0.00008471     0.00081923    -0.00060615
H         0.86532079    -0.02777211     1.91834541    -0.00080209     0.00005758     0.00027290
H        -0.99233567     0.05099504     1.90347192     0.00004284     0.00082118     0.00077847
H        -1.03470839     0.19401811    -0.62376155     0.00035786     0.00009340    -0.00080753
     6