     6
  Step:     0            Position(A)                                  Velocity(au)
C        -0.04154246     0.01611421     0.03768857    -0.00011383    -0.00009238    -0.00007087
N        -0.03696563    -0.06532208     1.28215290     0.00012831     0.00004592     0.00009705
H         0.92682153    -0.02821385    -0.53335350     0.00037475     0.00019546     0.00007860
H         0.80994655    -0.08328158     1.85044850    -0.00065466    -0.00000138    -0.00098628
H        -0.95767758     0.05417326     1.84268551    -0.00085404    -0.00022099     0.00037807
H        -0.98331874     0.10326544    -0.53408598     0.00070735     0.00048964     0.00002542
     6
  Step:     1            Position(A)                                  Velocity(au)
C        -0.04214192     0.01561906     0.03686606    -0.00010467    -0.00008909    -0.00022934
N        -0.03631848    -0.06510938     1.28305909     0.00010686     0.00003195     0.00023347
H         0.92892119    -0.02704930    -0.53278448     0.00038872     0.00023151     0.00013055
H         0.80666379    -0.08316024     1.84510299    -0.00053232     0.00004658    -0.00095837
H        -0.96196440     0.05302874     1.84447858    -0.00070624    -0.00019793     0.00027483
H        -0.97969855     0.10606881    -0.53389445     0.00061210     0.00053755     0.00004141
     6
  Step:     2            Position(A)                                  Velocity(au)
C        -0.04268720     0.01513979     0.03518024    -0.00009417    -0.00008669    -0.00038609
N        -0.03579688    -0.06497265     1.28470639     0.00008261     0.00001810     0.00036758
H         0.93107300    -0.02568185    -0.53192568     0.00039365     0.00027013     0.00018394
H         0.80412451    -0.08277208     1.83996667    -0.00038368     0.00009666    -0.00090994
H        -0.96540182     0.05200847     1.84569142    -0.00054532    -0.00017502     0.00016757
H        -0.97662410     0.10914468    -0.53363309     0.00050960     0.00058980     0.00005106
     6
  Step:     3            Position(A)                                  Velocity(au)
C        -0.04317174     0.01467099     0.03264385    -0.00008257    -0.00008528    -0.00053974
N        -0.03541512    -0.06491144     1.28707886     0.00005593     0.00000432     0.00049804
H         0.93322602    -0.02409519    -0.53077290     0.00038874     0.00031171     0.00023720
H         0.80246799    -0.08210316     1.83515206    -0.00021080     0.00014938    -0.00084067
H        -0.96792785     0.05111476     1.84631107    -0.00037448    -0.00015126     0.00005950
H        -0.97412565     0.11251879    -0.53333608     0.00040324     0.00064643     0.00005455
     6
  Step:     4            Position(A)                                  Velocity(au)
C        -0.04359034     0.01420700     0.02927663    -0.00007013    -0.00008478    -0.00068856
N        -0.03518509    -0.06492543     1.29015389     0.00002737    -0.00000934     0.00062329
H         0.93532499    -0.02227238    -0.52933121     0.00037325     0.00035577     0.00028836
H         0.80181876    -0.08113813     1.83077154    -0.00001738     0.00020437    -0.00075093
H        -0.96949788     0.05035398     1.84634222    -0.00019721    -0.00012631    -0.00004599
H        -0.97221357     0.11621521    -0.53303645     0.00029670     0.00070628     0.00005205
     6
  Step:     5            Position(A)                                  Velocity(au)
C        -0.04393928     0.01374302     0.02510751    -0.00005711    -0.00008494    -0.00083016
N        -0.03511558    -0.06501365     1.29390075    -0.00000239    -0.00002265     0.00074127
H         0.93731127    -0.02020128    -0.52761681     0.00034699     0.00040073     0.00033518
H         0.80227775    -0.07986628     1.82693308     0.00019113     0.00026003    -0.00064223
H        -0.97008628     0.04973231     1.84580769    -0.00001758    -0.00010062    -0.00014543
H        -0.97087823     0.12024908    -0.53276637     0.00019328     0.00076684     0.00004367
     6
  Step:     6            Position(A)                                  Velocity(au)
C        -0.04421621     0.01327609     0.02017897    -0.00004377    -0.00008537    -0.00096119
N        -0.03521132    -0.06517362     1.29827745    -0.00003246    -0.00003524     0.00084927
H         0.93912769    -0.01788084    -0.52565803     0.00031101     0.00044410     0.00037536
H         0.80391333    -0.07828848     1.82373337     0.00040755     0.00031376    -0.00051761
H        -0.96969050     0.04925128     1.84474844     0.00015930    -0.00007523    -0.00023538
H        -0.97009547     0.12461898    -0.53255782     0.00009487     0.00082451     0.00002947
     6
  Step:     7            Position(A)                                  Velocity(au)
C        -0.04441996     0.01280551     0.01455266    -0.00003035    -0.00008570    -0.00107747
N        -0.03547203    -0.06540067     1.30322658    -0.00006176    -0.00004672     0.00094392
H         0.94072644    -0.01532460    -0.52349497     0.00026777     0.00048320     0.00040679
H         0.80675311    -0.07642089     1.82124916     0.00062321     0.00036281    -0.00038180
H        -0.96833705     0.04890620     1.84322294     0.00032717    -0.00005109    -0.00031252
H        -0.96983643     0.12930309    -0.53244276     0.00000186     0.00087557     0.00000957
     6
  Step:     8            Position(A)                                  Velocity(au)
C        -0.04455043     0.01233237     0.00831367    -0.00001709    -0.00008565    -0.00117452
N        -0.03589149    -0.06568813     1.30867211    -0.00008909    -0.00005675     0.00102171
H         0.94207638    -0.01255973    -0.52117835     0.00022076     0.00051582     0.00042767
H         0.81077627    -0.07429311     1.81952895     0.00082823     0.00040506    -0.00024082
H        -0.96608767     0.04868864     1.84130693     0.00047893    -0.00002857    -0.00037362
H        -0.97007498     0.13426097    -0.53245239    -0.00008613     0.00091696    -0.00001562
     6
  Step:     9            Position(A)                                  Velocity(au)
C        -0.04460886     0.01185883     0.00157094    -0.00000431    -0.00008510    -0.00124848
N        -0.03645678    -0.06602790     1.31451928    -0.00011318    -0.00006512     0.00107962
H         0.94316644    -0.00962331    -0.51876806     0.00017378     0.00054057     0.00043662
H         0.81590738    -0.07194386     1.81858740     0.00101227     0.00043922    -0.00010141
H        -0.96304348     0.04859038     1.83909342     0.00060724    -0.00000742    -0.00041570
H        -0.97078843     0.13943804    -0.53261541    -0.00016919     0.00094664    -0.00004535
     6
  Step:    10            Position(A)                                  Velocity(au)
C        -0.04459825     0.01138759    -0.00554680     0.00000763    -0.00008402    -0.00129700
N        -0.03714795    -0.06641106     1.32065789    -0.00013283    -0.00007176     0.00111592
H         0.94400570    -0.00655835    -0.51633101     0.00013041     0.00055693     0.00043298
H         0.82201432    -0.06941693     1.81840309     0.00116579     0.00046482     0.00002983
H        -0.95934615     0.04860627     1.83669185     0.00070543     0.00001299    -0.00043643
H        -0.97195332     0.14477040    -0.53295583    -0.00024667     0.00096372    -0.00007844
     6
  Step:    11            Position(A)                                  Velocity(au)
C        -0.04452373     0.01092141    -0.01289933     0.00001835    -0.00008249    -0.00132008
N        -0.03793872    -0.06682849     1.32696922    -0.00014720    -0.00007674     0.00113079
H         0.94462140    -0.00340985    -0.51393746     0.00009363     0.00056529     0.00041698
H         0.82891380    -0.06675803     1.81892015     0.00128186     0.00048212     0.00014727
H        -0.95517320     0.04873534     1.83422430     0.00076879     0.00003339    -0.00043468
H        -0.97354043     0.15018994    -0.53349053    -0.00031739     0.00096863    -0.00011341
     6
  Step:    12            Position(A)                                  Velocity(au)
C        -0.04439253     0.01046270    -0.02034772     0.00002755    -0.00008067    -0.00132057
N        -0.03879833    -0.06727150     1.33333653    -0.00015593    -0.00008029     0.00112681
H         0.94505550    -0.00022028    -0.51165573     0.00006561     0.00056706     0.00038996
H         0.83638671    -0.06401135     1.82005430     0.00135764     0.00049221     0.00024715
H        -0.95072639     0.04898060     1.83181809     0.00079561     0.00005446    -0.00041101
H        -0.97551193     0.15563086    -0.53422736    -0.00038026     0.00096333    -0.00014870
     6
  Step:    13            Position(A)                                  Velocity(au)
C        -0.04421349     0.01001305    -0.02776992     0.00003509    -0.00007880    -0.00130393
N        -0.03969459    -0.06773265     1.33965792    -0.00015926    -0.00008279     0.00110865
H         0.94536020     0.00297562    -0.50954619     0.00004759     0.00056453     0.00035410
H         0.84420174    -0.06121535     1.82170318     0.00139499     0.00049696     0.00032806
H        -0.94621410     0.04934857     1.82959607     0.00078744     0.00007688    -0.00036747
H        -0.97782241     0.16103769    -0.53516496    -0.00043494     0.00095114    -0.00018320
     6
  Step:    14            Position(A)                                  Velocity(au)
C        -0.04399626     0.00957275    -0.03507420     0.00006258    -0.00011789    -0.00195057
N        -0.04059700    -0.06820653     1.34585752    -0.00024113    -0.00012937     0.00165289
H         0.94559298     0.00615547    -0.50765658     0.00006110     0.00085613     0.00047631
H         0.85214153    -0.05839870     1.82375935     0.00213764     0.00076173     0.00059713
H        -0.94183309     0.04984891     1.82766793     0.00114287     0.00015484    -0.00046887
H        -0.98042409     0.16637290    -0.53629638    -0.00073637     0.00142996    -0.00033070
     6
  Step:    15            Position(A)                                  Velocity(au)
C        -0.04364260     0.00891276    -0.04562717     0.00006084    -0.00011418    -0.00175330
N        -0.04192909    -0.06891266     1.35483105    -0.00022364    -0.00011869     0.00149609
H         0.94622766     0.01086383    -0.50545510     0.00016486     0.00079825     0.00029827
H         0.86408154    -0.05421800     1.82730267     0.00203292     0.00070695     0.00063362
H        -0.93565129     0.05069638     1.82527825     0.00100731     0.00014561    -0.00035908
H        -0.98488339     0.17431380    -0.53860147    -0.00082222     0.00135914    -0.00047059
     6
  Step:    16            Position(A)                                  Velocity(au)
C        -0.04330232     0.00827039    -0.05507295     0.00005803    -0.00011173    -0.00156573
N        -0.04314790    -0.06956033     1.36292239    -0.00020211    -0.00010905     0.00134637
H         0.94747340     0.01526056    -0.50425442     0.00027330     0.00074773     0.00012671
H         0.87532969    -0.05033498     1.83098664     0.00190040     0.00065804     0.00064919
H        -0.93034338     0.05150973     1.82357212     0.00084081     0.00014273    -0.00023178
H        -0.98980260     0.18187575    -0.54166407    -0.00089729     0.00129827    -0.00059651
     6
  Step:    17            Position(A)                                  Velocity(au)
C        -0.04298125     0.00763937    -0.06347179     0.00005459    -0.00011090    -0.00139703
N        -0.04423259    -0.07015545     1.37017565    -0.00017836    -0.00010099     0.00121157
H         0.94934250     0.01938567    -0.50401093     0.00038412     0.00070794    -0.00003692
H         0.88574042    -0.04671829     1.83470146     0.00175490     0.00061787     0.00065106
H        -0.92606856     0.05232310     1.82263668     0.00065343     0.00014620    -0.00009178
H        -0.99510978     0.18911016    -0.54539990    -0.00096433     0.00125286    -0.00071175
     6
  Step:    18            Position(A)                                  Velocity(au)
C        -0.04268264     0.00701143    -0.07093269     0.00005063    -0.00011147    -0.00124616
N        -0.04517271    -0.07070679     1.37667672    -0.00015295    -0.00009437     0.00109088
H         0.95183407     0.02329744    -0.50467350     0.00049453     0.00067794    -0.00019320
H         0.89525209    -0.04332068     1.83837779     0.00159962     0.00058556     0.00064253
H        -0.92292529     0.05316951     1.82253022     0.00045019     0.00015507     0.00005814
H        -1.00075007     0.19609876    -0.54974414    -0.00102223     0.00122124    -0.00081741
     6
  Step:    19            Position(A)                                  Velocity(au)
C        -0.04240892     0.00637935    -0.07755770     0.00004618    -0.00011302    -0.00110889
N        -0.04596143    -0.07122220     1.38250632    -0.00012611    -0.00008882     0.00098074
H         0.95493238     0.02704871    -0.50619476     0.00060075     0.00065519    -0.00034216
H         0.90382158    -0.04009942     1.84196421     0.00143343     0.00055901     0.00062472
H        -0.92097987     0.05407588     1.82329388     0.00023575     0.00016785     0.00021482
H        -1.00666452     0.20291441    -0.55463944    -0.00106769     0.00119902    -0.00091257
     6
  Step:    20            Position(A)                                  Velocity(au)
C        -0.04216238     0.00573824    -0.08342476     0.00004127    -0.00011512    -0.00098166
N        -0.04659342    -0.07170741     1.38772515    -0.00009825    -0.00008397     0.00087819
H         0.95860175     0.03067841    -0.50852807     0.00069863     0.00063735    -0.00048290
H         0.91140022    -0.03702321     1.84541546     0.00125579     0.00053635     0.00059842
H        -0.92026951     0.05506041     1.82495026     0.00001656     0.00018291     0.00037403
H        -1.01277804     0.20960616    -0.56002457    -0.00109742     0.00118206    -0.00099570
     6
  Step:    21            Position(A)                                  Velocity(au)
C        -0.04194506     0.00508544    -0.08859156     0.00003599    -0.00011745    -0.00086232
N        -0.04706573    -0.07216605     1.39237718    -0.00006998    -0.00007955     0.00078148
H         0.96278497     0.03421259    -0.51162262     0.00078438     0.00062273    -0.00061414
H         0.91793667    -0.03407085     1.84869042     0.00106792     0.00051632     0.00056471
H        -0.92079377     0.05613182     1.82749797    -0.00019940     0.00019861     0.00053086
H        -1.01899954     0.21620078    -0.56583118    -0.00110918     0.00116741    -0.00106566
     6
  Step:    22            Position(A)                                  Velocity(au)
C        -0.04175848     0.00441995    -0.09310351     0.00003046    -0.00011981    -0.00074979
N        -0.04737890    -0.07260029     1.39649649    -0.00004208    -0.00007536     0.00068980
H         0.96740564     0.03766802    -0.51542126     0.00085501     0.00061022    -0.00073467
H         0.92338658    -0.03122795     1.85175385     0.00087240     0.00049820     0.00052504
H        -0.92250755     0.05728960     1.83090867    -0.00040364     0.00021340     0.00068038
H        -1.02522758     0.22270925    -0.57198563    -0.00110198     0.00115320    -0.00112195
     6
  Step:    23            Position(A)                                  Velocity(au)
C        -0.04160345     0.00374190    -0.09699954     0.00002484    -0.00012205    -0.00064353
N        -0.04753761    -0.07301117     1.40011245    -0.00001532    -0.00007127     0.00060286
H         0.97237281     0.04105542    -0.51986103     0.00090845     0.00059909    -0.00084358
H         0.92771954    -0.02848417     1.85457807     0.00067245     0.00048155     0.00048096
H        -0.92532004     0.05852484     1.83512754    -0.00058818     0.00022593     0.00081807
H        -1.03135691     0.22913246    -0.57841249    -0.00107586     0.00113829    -0.00116471
     6
  Step:    24            Position(A)                                  Velocity(au)
C        -0.04148007     0.00305214    -0.10031525     0.00001926    -0.00012409    -0.00054325
N        -0.04755057    -0.07339900     1.40325246     0.00000960    -0.00006717     0.00052057
H         0.97758618     0.04438172    -0.52487481     0.00094353     0.00058890    -0.00094033
H         0.93092240    -0.02583148     1.85714379     0.00047144     0.00046613     0.00043408
H        -0.92909895     0.05982153     1.84007634    -0.00074624     0.00023510     0.00094017
H        -1.03728420     0.23546553    -0.58503794    -0.00103163     0.00112206    -0.00119454
     6
  Step:    25            Position(A)                                  Velocity(au)
C        -0.04138777     0.00235196    -0.10308432     0.00001381    -0.00012588    -0.00044873
N        -0.04743004    -0.07376354     1.40594316     0.00003211    -0.00006299     0.00044288
H         0.98294099     0.04765146    -0.53039336     0.00095984     0.00057935    -0.00102473
H         0.93299999    -0.02326324     1.85944010     0.00027260     0.00045177     0.00038590
H        -0.93367841     0.06115813     1.84565807    -0.00087267     0.00024007     0.00104382
H        -1.04291187     0.24170033    -0.59179213    -0.00097063     0.00110418    -0.00121236
     6
  Step:    26            Position(A)                                  Velocity(au)
C        -0.04132540     0.00164285    -0.10533893     0.00000861    -0.00012739    -0.00035973
N        -0.04719104    -0.07410419     1.40821066     0.00005178    -0.00005868     0.00036972
H         0.98833200     0.05086774    -0.53634705     0.00095762     0.00057025    -0.00109686
H         0.93397423    -0.02077369     1.86146406     0.00007890     0.00043838     0.00033780
H        -0.93886884     0.06250918     1.85176234    -0.00096414     0.00024029     0.00112712
H        -1.04815080     0.24782722    -0.59861071    -0.00089452     0.00108449    -0.00121924
     6
  Step:    27            Position(A)                                  Velocity(au)
C        -0.04129143     0.00092643    -0.10710980     0.00000370    -0.00012862    -0.00027601
N        -0.04685059    -0.07442014     1.41008040     0.00006832    -0.00005420     0.00030095
H         0.99365687     0.05403269    -0.54266742     0.00093760     0.00056149    -0.00115704
H         0.93388286    -0.01835765     1.86322008    -0.00010696     0.00042588     0.00029103
H        -0.94446730     0.06384702     1.85827073    -0.00101911     0.00023550     0.00118907
H        -1.05292166     0.25383598    -0.60543561    -0.00080503     0.00106297    -0.00121631
     6
  Step:    28            Position(A)                                  Velocity(au)
C        -0.04128405     0.00020430    -0.10842605    -0.00000089    -0.00012956    -0.00019727
N        -0.04642685    -0.07471043     1.41157678     0.00008159    -0.00004956     0.00023637
H         0.99881882     0.05714790    -0.54928829     0.00090089     0.00055297    -0.00120572
H         0.93277794    -0.01601033     1.86471917    -0.00028254     0.00041420     0.00024673
H        -0.95026739     0.06514325     1.86506186    -0.00103767     0.00022569     0.00122950
H        -1.05715486     0.25971635    -0.61221487    -0.00070390     0.00103964    -0.00120463
     6
  Step:    29            Position(A)                                  Velocity(au)
C        -0.04130135    -0.00052196    -0.10931511    -0.00000513    -0.00013023    -0.00012320
N        -0.04593847    -0.07497413     1.41272290     0.00009154    -0.00004474     0.00017573
H         1.00372826     0.06021454    -0.55614659     0.00084889     0.00054464    -0.00124351
H         0.93072431    -0.01372714     1.86597838    -0.00044567     0.00040334     0.00020592
H        -0.95606774     0.06637012     1.87201573    -0.00102124     0.00021104     0.00124892
H        -1.06079082     0.26545841    -0.61890255    -0.00059290     0.00101458    -0.00118525
     6
  Step:    30            Position(A)                                  Velocity(au)
C        -0.04134137    -0.00125085    -0.10980266    -0.00000903    -0.00013064    -0.00005350
N        -0.04540402    -0.07521036     1.41354030     0.00009822    -0.00003978     0.00011872
H         1.00830404     0.06323351    -0.56318292     0.00078312     0.00053644    -0.00127107
H         0.92779819    -0.01150354     1.86702007    -0.00059441     0.00039329     0.00016951
H        -0.96167839     0.06750135     1.87901695    -0.00097227     0.00019188     0.00124837
H        -1.06377973     0.27105292    -0.62545849    -0.00047370     0.00098792    -0.00115914
     6
  Step:    31            Position(A)                                  Velocity(au)
C        -0.04140218    -0.00198098    -0.10991255    -0.00001259    -0.00013082     0.00001216
N        -0.04484159    -0.07541836     1.41404875     0.00010173    -0.00003469     0.00006504
H         1.01247410     0.06620549    -0.57034184     0.00070517     0.00052834    -0.00128908
H         0.92408598    -0.00933488     1.86787142    -0.00072702     0.00038409     0.00013831
H        -0.96692599     0.06851298     1.88595743    -0.00089395     0.00016864     0.00122925
H        -1.06608104     0.27649149    -0.63184773    -0.00034789     0.00095984    -0.00112716
     6
  Step:    32            Position(A)                                  Velocity(au)
C        -0.04148186    -0.00271109    -0.10966694    -0.00001581    -0.00013078     0.00007406
N        -0.04426849    -0.07559754     1.41426625     0.00010224    -0.00002950     0.00001436
H         1.01617524     0.06913094    -0.57757183     0.00061658     0.00052029    -0.00129821
H         0.91968302    -0.00721622     1.86856390    -0.00084199     0.00037580     0.00011305
H        -0.97165685     0.06938377     1.89273809    -0.00078993     0.00014184     0.00119325
H        -1.06766297     0.28176679    -0.63804009    -0.00021699     0.00093050    -0.00109013
     6
  Step:    33            Position(A)                                  Velocity(au)
C        -0.04157853    -0.00344004    -0.10908631    -0.00001870    -0.00013055     0.00013248
N        -0.04370101    -0.07574753     1.41420893     0.00009992    -0.00002427    -0.00003364
H         1.01935290     0.07201007    -0.58482522     0.00051887     0.00051224    -0.00129912
H         0.91469233    -0.00514225     1.86913267    -0.00093803     0.00036849     0.00009435
H        -0.97573878     0.07009544     1.89926991    -0.00066411     0.00011202     0.00114221
H        -1.06850188     0.28687256    -0.64400968    -0.00008237     0.00090009    -0.00104872
     6
  Step:    34            Position(A)                                  Velocity(au)
C        -0.04169039    -0.00416681    -0.10818964    -0.00002128    -0.00013014     0.00018768
N        -0.04315431    -0.07586813     1.41389119     0.00009499    -0.00001901    -0.00007924
H         1.02196105     0.07484284    -0.59205810     0.00041352     0.00050414    -0.00129243
H         0.90922318    -0.00310720     1.86961597    -0.00101411     0.00036224     0.00008270
H        -0.97906229     0.07063283     1.90547468    -0.00052058     0.00007972     0.00107805
H        -1.06858147     0.29180361    -0.64973424     0.00005470     0.00086880    -0.00100355
     6
  Step:    35            Position(A)                                  Velocity(au)
C        -0.04181572    -0.00489049    -0.10699454    -0.00002356    -0.00012957     0.00023986
N        -0.04264224    -0.07595938     1.41332574     0.00008770    -0.00001377    -0.00012274
H         1.02396182     0.07762893    -0.59923009     0.00030195     0.00049593    -0.00127875
H         0.90338953    -0.00110488     1.87005439    -0.00106953     0.00035712     0.00007845
H        -0.98154097     0.07098396     1.91128538    -0.00036342     0.00004552     0.00100277
H        -1.06789224     0.29655585    -0.65519476     0.00019302     0.00083681    -0.00095514
     6
  Step:    36            Position(A)                                  Velocity(au)
C        -0.04195287    -0.00561030    -0.10551741    -0.00002555    -0.00012886     0.00028922
N        -0.04217726    -0.07602156     1.41252384     0.00007830    -0.00000859    -0.00016435
H         1.02532501     0.08036774    -0.60630411     0.00018552     0.00048754    -0.00125860
H         0.89730802     0.00087130     1.87048990    -0.00110394     0.00035318     0.00008175
H        -0.98311106     0.07113992     1.91664608    -0.00019662     0.00000995     0.00091828
H        -1.06643110     0.30112620    -0.66037504     0.00033147     0.00080429    -0.00090396
     6
  Step:    37            Position(A)                                  Velocity(au)
C        -0.04210024    -0.00632551    -0.10377369    -0.00002726    -0.00012802     0.00033590
N        -0.04177032    -0.07605510     1.41149548     0.00006705    -0.00000351    -0.00020428
H         1.02602779     0.08305829    -0.61324607     0.00006551     0.00047892    -0.00123247
H         0.89109582     0.00282817     1.87096477    -0.00111743     0.00035044     0.00009257
H        -0.98373055     0.07109477     1.92151158    -0.00002398    -0.00002646     0.00082649
H        -1.06420097     0.30551261    -0.66526139     0.00046895     0.00077141    -0.00085042
     6
  Step:    38            Position(A)                                  Velocity(au)
C        -0.04225631    -0.00703548    -0.10177805    -0.00002869    -0.00012706     0.00037998
N        -0.04143082    -0.07606065     1.41024970     0.00005426     0.00000144    -0.00024265
H         1.02605432     0.08569927    -0.62002458    -0.00005682     0.00046997    -0.00120081
H         0.88486822     0.00477260     1.87152039    -0.00111053     0.00034890     0.00011062
H        -0.98337798     0.07084534     1.92584697     0.00015088    -0.00006323     0.00072919
H        -1.06121056     0.30971392    -0.66984229     0.00060440     0.00073832    -0.00079489
     6
  Step:    39            Position(A)                                  Velocity(au)
C        -0.04241956    -0.00773961    -0.09954467    -0.00002985    -0.00012598     0.00042152
N        -0.04116647    -0.07603902     1.40879487     0.00004023     0.00000624    -0.00027954
H         1.02539536     0.08828893    -0.62661062    -0.00018029     0.00046063    -0.00116400
H         0.87873607     0.00671125     1.87219593    -0.00108421     0.00034847     0.00013538
H        -0.98205131     0.07039107     1.92962718     0.00032448    -0.00009987     0.00062813
H        -1.05747425     0.31372988    -0.67410822     0.00073675     0.00070519    -0.00073772
     6
  Step:    40            Position(A)                                  Velocity(au)
C        -0.04258851    -0.00843735    -0.09708748    -0.00003075    -0.00012479     0.00046052
N        -0.04098318    -0.07599116     1.40713899     0.00002531     0.00001086    -0.00031498
H         1.02404808     0.09082511    -0.63297732    -0.00030371     0.00045081    -0.00112240
H         0.87280329     0.00865032     1.87302692    -0.00103996     0.00034905     0.00016607
H        -0.97976720     0.06973396     1.93283671     0.00049346    -0.00013594     0.00052506
H        -1.05301210     0.31756110    -0.67805151     0.00086493     0.00067215    -0.00067925
     6
  Step:    41            Position(A)                                  Velocity(au)
C        -0.04276167    -0.00912816    -0.09442042    -0.00003137    -0.00012349     0.00049693
N        -0.04088489    -0.07591817     1.40529006     0.00000986     0.00001527    -0.00034891
H         1.02201597     0.09330522    -0.63909974    -0.00042589     0.00044044    -0.00107635
H         0.86716420     0.01059522     1.87404386    -0.00097974     0.00035046     0.00020163
H        -0.97656045     0.06887848     1.93546957     0.00065456    -0.00017096     0.00042170
H        -1.04785000     0.32120906    -0.68166634     0.00098782     0.00063939    -0.00061982
     6
  Step:    42            Position(A)                                  Velocity(au)
C        -0.04293756    -0.00981150    -0.09155769    -0.00003172    -0.00012208     0.00053068
N        -0.04087344    -0.07582126     1.40325632    -0.00000571     0.00001944    -0.00038126
H         1.01930888     0.09572621    -0.64495483    -0.00054564     0.00042942    -0.00102621
H         0.86190094     0.01255022     1.87527064    -0.00090596     0.00035247     0.00024073
H        -0.97248341     0.06783155     1.93752927     0.00080459    -0.00020450     0.00031979
H        -1.04201979     0.32467615    -0.68494877     0.00110428     0.00060707    -0.00055980
     6
  Step:    43            Position(A)                                  Velocity(au)
C        -0.04311468    -0.01048685    -0.08851399    -0.00003179    -0.00012055     0.00056163
N        -0.04094842    -0.07570175     1.40104666    -0.00002098     0.00002337    -0.00041187
H         1.01594303     0.09808466    -0.65052141    -0.00066177     0.00041771    -0.00097233
H         0.85708093     0.01451819     1.87672317    -0.00082148     0.00035479     0.00028181
H        -0.96760544     0.06660245     1.93902879     0.00094052    -0.00023611     0.00022107
H        -1.03555945     0.32796571    -0.68789684     0.00121315     0.00057538    -0.00049957
     6
  Step:    44            Position(A)                                  Velocity(au)
C        -0.04329150    -0.01115368    -0.08530474    -0.00003159    -0.00011892     0.00058965
N        -0.04110707    -0.07556107     1.39867080    -0.00003554     0.00002703    -0.00044055
H         1.01194108     0.10037679    -0.65578029    -0.00077307     0.00040525    -0.00091511
H         0.85275497     0.01650031     1.87840818    -0.00072946     0.00035711     0.00032313
H        -0.96201207     0.06520281     1.93999059     0.00105951    -0.00026539     0.00012728
H        -1.02851314     0.33108217    -0.69051075     0.00131330     0.00054454    -0.00043957
     6