|===============================================================================
|
|  DFTB+ release 20.1
|
|  Copyright (C) 2006 - 2020  DFTB+ developers group
|
|===============================================================================
|
|  When publishing results obtained with DFTB+, please cite the following
|  reference:
|
|  * DFTB+, a software package for efficient approximate density functional
|    theory based atomistic simulations, J. Chem. Phys. 152, 124101 (2020).
|    [doi: 10.1063/1.5143190]
|
|  You should also cite additional publications crediting the parametrization
|  data you use. Please consult the documentation of the SK-files for the
|  references.
|
|===============================================================================

Reading input file 'dftb_in.hsd'
Parser version: 8

--------------------------------------------------------------------------------
Reading SK-files:
Done.


Processed input in HSD format written to 'dftb_pin.hsd'

Starting initialization...
--------------------------------------------------------------------------------
OpenMP threads:              1
Chosen random seed:          452471664
Mode:                        Static calculation
Self consistent charges:     Yes
SCC-tolerance:                 0.100000E-05
Max. scc iterations:                   1000
Shell resolved Hubbard:      No
Spin polarisation:           No
Nr. of up electrons:             6.000000
Nr. of down electrons:           6.000000
Periodic boundaries:         No
Electronic solver:           Relatively robust
Maximal SCC-cycles:                    1000
Initial charges:             Set automatically (system chrg:   0.100E+01)
Included shells:             C:  s, p
                             N:  s, p
                             H:  s
Spin coupling constants:     C   1(s)-1(s):  -0.455900E-01
                             C   1(s)-2(p):  -0.293000E-01
                             C   2(p)-1(s):  -0.293000E-01
                             C   2(p)-2(p):  -0.275500E-01
                             N   1(s)-1(s):  -0.468700E-01
                             N   1(s)-2(p):  -0.317000E-01
                             N   2(p)-1(s):  -0.317000E-01
                             N   2(p)-2(p):  -0.307200E-01
                             H   1(s)-1(s):  -0.792500E-01
Range separated hybrid:      Yes
  Screening parameter omega:   0.300000E+00
  Range separated algorithm:   MatrixBased
Extra options:
                             Mulliken analysis
                             Force calculation
Force type                   original
                             Eigenvector printing


REKS Calcuation:             Yes
SSR(2,2) Calcuation:         Yes
Energy Functional:           (PPS+OSS)/2
Number of Core Orbitals:                  5
Number of Active Orbitals:                2
Number of Basis:                         12
Number of States:                         2
State-Averaging Weight:          0.500000
                                 0.500000
State of Interest:                        1
Initial Guess:               Diagonalize H0 matrix
Newton-Raphson for FON opt:  Yes
NR max. Iterations:                      50
Level Shifting:              Yes
Shift Value:                     0.300000
W Scale Factor:              C  =    3.200000
                             N  =    3.200000
                             H  =    3.200000
Transition Dipole:           No
Gradient of Microstate:      No
CP-REKS Solver:              Preconditioned Conjugate-Gradient
CG max. Iterations:                     100
CG Tolerance:                  0.100000E-07
Memory for A and Hxc:        Direct Updating Without Saving
Non-Adiabatic Coupling:      Yes

--------------------------------------------------------------------------------

***  Geometry step: 0

  iSCC       reks energy        Diff energy         x_a       SCC error   
    1       -6.1732182885       0.0000000000     0.999554    1.15277283
    2       -6.1757875339      -0.0025692453     0.999675    0.01970747
    3       -6.1764501625      -0.0006626286     0.999724    0.00916282
    4       -6.1766895135      -0.0002393510     0.999751    0.00441404
    5       -6.1767938988      -0.0001043853     0.999766    0.00274950
    6       -6.1768449535      -0.0000510547     0.999776    0.00200179
    7       -6.1768717220      -0.0000267685     0.999783    0.00145765
    8       -6.1768863783      -0.0000146563     0.999788    0.00107453
    9       -6.1768946358      -0.0000082575     0.999791    0.00088531
   10       -6.1768993839      -0.0000047481     0.999794    0.00074050
   11       -6.1769021573      -0.0000027735     0.999795    0.00061387
   12       -6.1769037987      -0.0000016414     0.999797    0.00050596
   13       -6.1769047813      -0.0000009826     0.999798    0.00041545
   14       -6.1769053758      -0.0000005945     0.999799    0.00034028
   15       -6.1769057390      -0.0000003632     0.999799    0.00027823
   16       -6.1769059629      -0.0000002239     0.999800    0.00022724
   17       -6.1769061021      -0.0000001393     0.999800    0.00018546
   18       -6.1769061894      -0.0000000873     0.999801    0.00015129
   19       -6.1769062446      -0.0000000551     0.999801    0.00012338
   20       -6.1769062796      -0.0000000351     0.999801    0.00010060
   21       -6.1769063020      -0.0000000224     0.999801    0.00008202
   22       -6.1769063165      -0.0000000144     0.999801    0.00006687
   23       -6.1769063258      -0.0000000093     0.999802    0.00005452
   24       -6.1769063319      -0.0000000061     0.999802    0.00004445
   25       -6.1769063358      -0.0000000039     0.999802    0.00003625
   26       -6.1769063384      -0.0000000026     0.999802    0.00002956
   27       -6.1769063401      -0.0000000017     0.999802    0.00002411
   28       -6.1769063412      -0.0000000011     0.999802    0.00001966
   29       -6.1769063419      -0.0000000007     0.999802    0.00001604
   30       -6.1769063424      -0.0000000005     0.999802    0.00001308
   31       -6.1769063427      -0.0000000003     0.999802    0.00001068
   32       -6.1769063429      -0.0000000002     0.999802    0.00000871
   33       -6.1769063431      -0.0000000001     0.999802    0.00000711
   34       -6.1769063432      -0.0000000001     0.999802    0.00000580
   35       -6.1769063432      -0.0000000001     0.999802    0.00000473
   36       -6.1769063433      -0.0000000000     0.999802    0.00000386
   37       -6.1769063433      -0.0000000000     0.999802    0.00000315
   38       -6.1769063433      -0.0000000000     0.999802    0.00000257
   39       -6.1769063433      -0.0000000000     0.999802    0.00000210
   40       -6.1769063433      -0.0000000000     0.999802    0.00000172
   41       -6.1769063434      -0.0000000000     0.999802    0.00000140
   42       -6.1769063434      -0.0000000000     0.999802    0.00000114
   43       -6.1769063434      -0.0000000000     0.999802    0.00000093
  
--------------------------------------------------
 Final SA-REKS(2,2) energy:      -6.17690634
  
 State     Energy      FON(1)    FON(2)   Spin
  PPS   -6.28441395   1.999604  0.000396  0.00
  OSS   -6.06939874   1.000000  1.000000  0.00
 Trip   -6.15311389   1.000000  1.000000  1.00
--------------------------------------------------

 Lagrangian Wab:  -0.00003494 -0.00003495

--------------------------------------------------
 SSR: 2SI-2SA-REKS(2,2) Hamiltonian matrix
               PPS           OSS
   PPS    -6.28441395   -0.00004871
   OSS    -0.00004871   -6.06939874
--------------------------------------------------

----------------------------------------------------------------
 SSR: 2SI-2SA-REKS(2,2) states
                    E_n       C_{PPS}    C_{OSS}
 SSR state  1   -6.28441396  -1.000000  -0.000227
 SSR state  2   -6.06939872   0.000227  -1.000000
----------------------------------------------------------------

 unrelaxed SSR FONs for S0:  1.999604  0.000396

Total Energy:                       -6.2844139620 H         -171.0076 eV
Extrapolated to 0:                  -6.2844139620 H         -171.0076 eV

----------------------------------------------------------------------------------
 Solving CP-REKS equation for  1 state vector...
----------------------------------------------------------------------------------
  CG solver: Constructing Y initial guess
  CG solver: Iteration    1    eps =    0.000067382645
  CG solver: Iteration    2    eps =    0.000003706796
  CG solver: Iteration    3    eps =    0.000000870290
  CG solver: Iteration    4    eps =    0.000000018773
  CG solver: Iteration    5    eps =    0.000000006296
  Convergence reached in CG solver after    5 iterations
  CG solver: Calculating converged R, Z, Q2 matrix
----------------------------------------------------------------------------------

----------------------------------------------------------------------------------
 Solving CP-REKS equation for SI between  1 and  2 state vectors...
----------------------------------------------------------------------------------
  CG solver: Constructing Y initial guess
  CG solver: Iteration    1    eps =    0.000700243112
  CG solver: Iteration    2    eps =    0.000326606247
  CG solver: Iteration    3    eps =    0.000094171553
  CG solver: Iteration    4    eps =    0.000001731685
  CG solver: Iteration    5    eps =    0.000000072886
  CG solver: Iteration    6    eps =    0.000000044239
  CG solver: Iteration    7    eps =    0.000000001393
  Convergence reached in CG solver after    7 iterations
  CG solver: Calculating converged R, Z, Q2 matrix
----------------------------------------------------------------------------------

--------------------------------------------------
 Gradient Information
--------------------------------------------------
           1 st state (SSR)
     0.09913994     0.02703252    -0.03344047
    -0.03544387     0.00018665     0.13614210
    -0.05275921    -0.01579798     0.02773924
     0.06741309     0.01332921    -0.08286252
    -0.05210426    -0.01480352     0.00018955
    -0.02624570    -0.00994687    -0.04776789

           2 st state (SSR)
     0.06775239     0.01563462     0.01797996
    -0.00694782    -0.00274084     0.01783276
    -0.05587640    -0.01360839     0.05132511
     0.05681726     0.01447369    -0.05808194
    -0.05401718    -0.01048543    -0.00590494
    -0.00772825    -0.00327363    -0.02315095
--------------------------------------------------
 Coupling Information
--------------------------------------------------
 between  1 and  2 states
--------------------------------------------------
 g vector - difference gradient
     0.01569271     0.00570409    -0.02571085
    -0.01424602     0.00145848     0.05915504
     0.00155789    -0.00109245    -0.01179272
     0.00529788    -0.00057382    -0.01239031
     0.00095525    -0.00215525     0.00304729
    -0.00925771    -0.00334106    -0.01230845

 h vector - derivative coupling
     0.00234426    -0.01134013     0.00138265
    -0.00442198     0.01161855    -0.00079915
     0.00155538    -0.00517081    -0.00047418
     0.00009299     0.00348376     0.00003068
     0.00267742    -0.00837962    -0.00009342
    -0.00224808     0.00978824    -0.00004659

 G vector - GDV
     0.01569377     0.00569895    -0.02571022
    -0.01424803     0.00146375     0.05915467
     0.00155860    -0.00109479    -0.01179293
     0.00529792    -0.00057224    -0.01239029
     0.00095646    -0.00215904     0.00304724
    -0.00925873    -0.00333662    -0.01230847

 H vector - DCV - non-adiabatic coupling
     0.01086969    -0.05275306     0.00648465
    -0.02053585     0.05403288    -0.00384137
     0.00723055    -0.02404625    -0.00218047
     0.00042133     0.01620360     0.00016880
     0.01245021    -0.03896769    -0.00044089
    -0.01043594     0.04553052    -0.00019072
--------------------------------------------------


--------------------------------------------------------------------------------
DFTB+ running times                          cpu [s]             wall clock [s]
--------------------------------------------------------------------------------
SCC                                    +     0.02  ( 62.9%)      0.02  ( 53.7%)
Post-SCC processing                    +     0.01  ( 32.8%)      0.01  ( 29.3%)
--------------------------------------------------------------------------------
Missing                                +     0.00  (  4.2%)      0.01  ( 17.1%)
Total                                  =     0.03  (100.0%)      0.04  (100.0%)
--------------------------------------------------------------------------------
