     6
  Step:     0            Position(A)                                  Velocity(au)
C        -0.03366706     0.00752262     0.02260663    -0.00003776     0.00000447    -0.00022820
N        -0.04112264    -0.05946567     1.29143994     0.00003133    -0.00003325     0.00017878
H         0.92686382     0.03877299    -0.54873637     0.00020089    -0.00003124    -0.00003237
H         0.78864930    -0.07512111     1.84931068     0.00029421     0.00025974    -0.00031291
H        -0.95205041    -0.01231922     1.86456027    -0.00088350     0.00003371     0.00021802
H        -1.00376728     0.11560573    -0.48877873     0.00040297     0.00014660     0.00036211
     6
  Step:     1            Position(A)                                  Velocity(au)
C        -0.03406256     0.00760335     0.01943944    -0.00003325     0.00000984    -0.00034402
N        -0.04098129    -0.05986774     1.29405202    -0.00000614    -0.00004002     0.00029429
H         0.92894136     0.03848410    -0.54958439     0.00017737    -0.00002217    -0.00012080
H         0.79336011    -0.07225958     1.84716262     0.00055948     0.00026478    -0.00008062
H        -0.96014677    -0.01199996     1.86607489    -0.00057609     0.00002334     0.00005014
H        -0.99971083     0.11733932    -0.48585539     0.00032088     0.00017298     0.00016113
     6
  Step:     2            Position(A)                                  Velocity(au)
C        -0.03439457     0.00773789     0.01508049    -0.00002625     0.00001422    -0.00044408
N        -0.04125706    -0.06034124     1.29787806    -0.00004303    -0.00004626     0.00039890
H         0.93074406     0.03828792    -0.55137919     0.00015085    -0.00001432    -0.00020568
H         0.80088907    -0.06932844     1.84754706     0.00079446     0.00027261     0.00013908
H        -0.96465351    -0.01180860     1.86565716    -0.00024098     0.00001100    -0.00012577
H        -0.99674736     0.11938998    -0.48525378     0.00020652     0.00020414    -0.00005921
     6
  Step:     3            Position(A)                                  Velocity(au)
C        -0.03463690     0.00791436     0.00972425    -0.00001712     0.00001747    -0.00052510
N        -0.04192275    -0.06087969     1.30277881    -0.00007576    -0.00005186     0.00048938
H         0.93224154     0.03817073    -0.55408408     0.00012168    -0.00000776    -0.00028741
H         0.81074053    -0.06629579     1.85020522     0.00097216     0.00028326     0.00032648
H        -0.96541873    -0.01175932     1.86332345     0.00009427    -0.00000195    -0.00029109
H        -0.99519280     0.12180516    -0.48715072     0.00006870     0.00023893    -0.00029144
     6
  Step:     4            Position(A)                                  Velocity(au)
C        -0.03476913     0.00812009     0.00359293    -0.00000654     0.00001958    -0.00058528
N        -0.04291446    -0.06147575     1.30858415    -0.00010126    -0.00005677     0.00056324
H         0.93340604     0.03811823    -0.55766691     0.00009003    -0.00000252    -0.00036639
H         0.82215685    -0.06313150     1.85468933     0.00107337     0.00029642     0.00046783
H        -0.96259111    -0.01185116     1.85928891     0.00040186    -0.00001407    -0.00042791
H        -0.99524448     0.12461706    -0.49162953    -0.00008022     0.00027576    -0.00052627
     6
  Step:     5            Position(A)                                  Velocity(au)
C        -0.03477989     0.00834277    -0.00307997     0.00000459     0.00002063    -0.00062426
N        -0.04413802    -0.06212169     1.31510079    -0.00011711    -0.00006099     0.00061868
H         0.93421102     0.03811561    -0.56209947     0.00005598     0.00000134    -0.00044291
H         0.83422244    -0.05981109     1.86043988     0.00108895     0.00031146     0.00055665
H        -0.95662730    -0.01206704     1.85396212     0.00065341    -0.00002384    -0.00051893
H        -0.99694766     0.12783801    -0.49866380    -0.00022566     0.00031270    -0.00075344
     6
  Step:     6            Position(A)                                  Velocity(au)
C        -0.03466880     0.00857147    -0.01006399     0.00001655     0.00002676    -0.00073888
N        -0.04547635    -0.06280995     1.32211890    -0.00012361    -0.00007080     0.00072930
H         0.93463077     0.03814747    -0.56735636    -0.00004660    -0.00014801    -0.00045487
H         0.84597970    -0.05631766     1.86686705     0.00099263     0.00050462     0.00057084
H        -0.94829655    -0.01237272     1.84793625     0.00085094    -0.00018487    -0.00056924
H        -1.00018118     0.13145790    -0.50811256    -0.00027648     0.00049330    -0.00087676
     6
  Step:     7            Position(A)                                  Velocity(au)
C        -0.03441790     0.00892811    -0.01924443     0.00002653     0.00003913    -0.00094769
N        -0.04684213    -0.06367055     1.33105557    -0.00011814    -0.00008651     0.00091076
H         0.93319151     0.03487767    -0.57205061    -0.00021138    -0.00036026    -0.00038942
H         0.85593820    -0.04877149     1.87292819     0.00077725     0.00077258     0.00050120
H        -0.93801126    -0.01611141     1.84150889     0.00097999    -0.00039675    -0.00058233
H        -1.00299609     0.13862986    -0.51784461    -0.00022029     0.00072031    -0.00089300
     6
  Step:     8            Position(A)                                  Velocity(au)
C        -0.03408831     0.00942748    -0.03079644     0.00003145     0.00005152    -0.00114822
N        -0.04806095    -0.06470245     1.34204347    -0.00009724    -0.00010152     0.00108155
H         0.93000634     0.03026613    -0.57587565    -0.00035309    -0.00047036    -0.00031857
H         0.86298352    -0.03941599     1.87783178     0.00048999     0.00092163     0.00038792
H        -0.92685746    -0.02105233     1.83519671     0.00097800    -0.00048855    -0.00052245
H        -1.00500048     0.14721616    -0.52764866    -0.00013832     0.00083419    -0.00089418
     6
  Step:     9            Position(A)                                  Velocity(au)
C        -0.03372989     0.01005519    -0.04436402     0.00003154     0.00006247    -0.00131393
N        -0.04896952    -0.06589155     1.35471646    -0.00006211    -0.00011518     0.00121660
H         0.92546697     0.02458771    -0.57901989    -0.00045044    -0.00056284    -0.00027167
H         0.86665763    -0.02860905     1.88141468     0.00017712     0.00104637     0.00027052
H        -0.91661554    -0.02679946     1.83007937     0.00080601    -0.00055277    -0.00036096
H        -1.00602221     0.15687942    -0.53740642    -0.00004547     0.00092543    -0.00088748
     6
  Step:    10            Position(A)                                  Velocity(au)
C        -0.03339828     0.01079415    -0.05954107     0.00002637     0.00007188    -0.00144267
N        -0.04941969    -0.06722223     1.36865903    -0.00001524    -0.00012742     0.00131419
H         0.92015219     0.01795297    -0.58181887    -0.00048792    -0.00064815    -0.00026006
H         0.86685839    -0.01652459     1.88374997    -0.00012926     0.00115885     0.00016902
H        -0.90922446    -0.03314515     1.82730001     0.00046573    -0.00060211    -0.00010196
H        -1.00599514     0.16746166    -0.54706396     0.00004897     0.00100561    -0.00087861
     6
  Step:    11            Position(A)                                  Velocity(au)
C        -0.03315302     0.01162762    -0.07592513     0.00001578     0.00007982    -0.00153605
N        -0.04930287    -0.06867910     1.38346695     0.00003843    -0.00013832     0.00137703
H         0.91479278     0.01040829    -0.58470922    -0.00045444    -0.00073089    -0.00029079
H         0.86382991    -0.00325692     1.88511230    -0.00039776     0.00126553     0.00010068
H        -0.90642670    -0.03997168     1.82784883    -0.00000635    -0.00064368     0.00023085
H        -1.00495099     0.17887899    -0.55662773     0.00013647     0.00108002    -0.00087277
     6
  Step:    12            Position(A)                                  Velocity(au)
C        -0.03305307     0.01254044    -0.09314504     0.00000013     0.00008650    -0.00159758
N        -0.04857895    -0.07024822     1.39878410     0.00009165    -0.00014810     0.00141041
H         0.91021044     0.00196332    -0.58818052    -0.00034574    -0.00081416    -0.00036615
H         0.85815655     0.01116128     1.88595248    -0.00059830     0.00137238     0.00008018
H        -0.90936340    -0.04722693     1.83235033    -0.00054070    -0.00068284     0.00059752
H        -1.00300956     0.19108918    -0.56615748     0.00020960     0.00115205    -0.00087435
     6
  Step:    13            Position(A)                                  Velocity(au)
C        -0.03315023     0.01351991    -0.11087523    -0.00001954     0.00009212    -0.00163169
N        -0.04729782    -0.07191916     1.41432245     0.00013612    -0.00015721     0.00142073
H         0.90722895    -0.00740311    -0.59271943    -0.00016711    -0.00090037    -0.00048277
H         0.85074087     0.02676658     1.88686649    -0.00070489     0.00148611     0.00011853
H        -0.91825566    -0.05491022     1.84092078    -0.00104912    -0.00072307     0.00095125
H        -1.00036555     0.20408224    -0.57575576     0.00026234     0.00122431    -0.00088668
     6
  Step:    14            Position(A)                                  Velocity(au)
C        -0.03348057     0.01455574    -0.12884138    -0.00004143     0.00009688    -0.00164302
N        -0.04560099    -0.07368753     1.42986529     0.00016454    -0.00016629     0.00141405
H         0.90655456    -0.01773392    -0.59874203     0.00006517    -0.00099102    -0.00063141
H         0.84273564     0.04367285     1.88854545    -0.00070079     0.00161383     0.00022086
H        -0.93231488    -0.06304543     1.85316069    -0.00144787    -0.00076521     0.00125061
H        -0.99727032     0.21787325    -0.58555536     0.00029063     0.00129883    -0.00091188
     6
  Step:    15            Position(A)                                  Velocity(au)
C        -0.03405661     0.01563925    -0.14681951    -0.00006315     0.00010086    -0.00163591
N        -0.04369814    -0.07555700     1.44525751     0.00017258    -0.00017606     0.00139529
H         0.90865476    -0.02908347    -0.60653274     0.00032489    -0.00108647    -0.00079812
H         0.83540969     0.06207220     1.89169833    -0.00058477     0.00176182     0.00038404
H        -0.94993061    -0.07165063     1.86828032    -0.00167870    -0.00080762     0.00146881
H        -0.99400753     0.23249658    -0.59570488     0.00029287     0.00137705    -0.00095066
     6
  Step:    16            Position(A)                                  Velocity(au)
C        -0.03486218     0.01676226    -0.16463003    -0.00008209     0.00010406    -0.00161400
N        -0.04182547    -0.07753921     1.46039002     0.00015994    -0.00018713     0.00136800
H         0.91366221    -0.04150249    -0.61620250     0.00057964    -0.00118560    -0.00096658
H         0.82994265     0.08221600     1.89694711    -0.00037603     0.00193340     0.00059485
H        -0.96903956    -0.08071377     1.88529362    -0.00171837    -0.00084705     0.00159637
H        -0.99086319     0.24799882    -0.60635295     0.00027043     0.00145966    -0.00100229
     6
  Step:    17            Position(A)                                  Velocity(au)
C        -0.03585253     0.01791580    -0.18212893    -0.00009591     0.00010638    -0.00158027
N        -0.04019922    -0.07965077     1.47518509     0.00013014    -0.00019970     0.00133471
H         0.92133547    -0.05502072    -0.62767861     0.00079666    -0.00128581    -0.00112110
H         0.82718333     0.10436897     1.90471192    -0.00011450     0.00212663     0.00083055
H        -0.98752333    -0.09018145     1.90320392    -0.00157559    -0.00087978     0.00163810
H        -0.98809141     0.26442943    -0.61763184     0.00022786     0.00154639    -0.00106452
     6
  Step:    18            Position(A)                                  Velocity(au)
C        -0.03696038     0.01908954    -0.19920150    -0.00010303     0.00010771    -0.00153721
N        -0.03897850    -0.08190794     1.48958930     0.00008929    -0.00021346     0.00129752
H         0.93109069    -0.06963194    -0.64072881     0.00094876    -0.00138339    -0.00124928
H         0.82743784     0.12873999     1.91511693     0.00014556     0.00233304     0.00106231
H        -1.00350862    -0.09996065     1.92113012    -0.00128031    -0.00090263     0.00160734
H        -0.98587831     0.28182910    -0.62964127     0.00017283     0.00163583    -0.00113376
     6
  Step:    19            Position(A)                                  Velocity(au)
C        -0.03810647     0.02027218    -0.21575828    -0.00010290     0.00010800    -0.00148689
N        -0.03824578    -0.08432060     1.50357086     0.00004444    -0.00022763     0.00125822
H         0.94209146    -0.08528499    -0.65500905     0.00101832    -0.00147426    -0.00134348
H         0.83036780     0.15540862     1.92795209     0.00034755     0.00253848     0.00126115
H        -1.01553256    -0.10992825     1.93836748    -0.00087273    -0.00091340     0.00152091
H        -0.98431043     0.30021630    -0.64243505     0.00011541     0.00172539    -0.00120542
     6
  Step:    20            Position(A)                                  Velocity(au)
C        -0.03921154     0.02145234    -0.23173000    -0.00009601     0.00010732    -0.00143093
N        -0.03800619    -0.08688768     1.51711523     0.00000205    -0.00024112     0.00121805
H         0.95336832    -0.10188412    -0.67011995     0.00099864    -0.00155469    -0.00140101
H         0.83504124     0.18427409     1.94270701     0.00044558     0.00272605     0.00140387
H        -1.02260117    -0.11994313     1.95440294    -0.00039554    -0.00091101     0.00139600
H        -0.98335355     0.31957531    -0.65601218     0.00006689     0.00181152    -0.00127438
     6
  Step:    21            Position(A)                                  Velocity(au)
C        -0.04020697     0.02261998    -0.24706250    -0.00008364     0.00010582    -0.00137051
N        -0.03820084    -0.08959552     1.53021807    -0.00003289    -0.00025286     0.00117758
H         0.96393857    -0.11929687    -0.68565872     0.00089266    -0.00162180    -0.00142320
H         0.84011576     0.21504628     1.95866440     0.00041308     0.00287999     0.00147687
H        -1.02418575    -0.12985823     1.96890769     0.00010966    -0.00089541     0.00124899
H        -0.98284716     0.33984679    -0.67031445     0.00003824     0.00189003    -0.00133562
     6
  Step:    22            Position(A)                                  Velocity(au)
C        -0.04104132     0.02376746    -0.26171250    -0.00006748     0.00010379    -0.00130647
N        -0.03872563    -0.09241943     1.54287694    -0.00005704    -0.00026198     0.00113659
H         0.97289701    -0.13736406    -0.70125518     0.00071034    -0.00167392    -0.00141410
H         0.84407819     0.24727937     1.97501648     0.00024492     0.00298874     0.00147686
H        -1.02020211    -0.13953190     1.98172693     0.00060288    -0.00086760     0.00109557
H        -0.98251694     0.36092341    -0.68523137     0.00003870     0.00195667    -0.00138480
     6
  Step:    23            Position(A)                                  Velocity(au)
C        -0.04168333     0.02489056    -0.27564401    -0.00004936     0.00010153    -0.00123935
N        -0.03944877    -0.09532693     1.55508305    -0.00006842    -0.00026796     0.00109423
H         0.97947869    -0.15591708    -0.71659480     0.00046584    -0.00171065    -0.00137917
H         0.84547384     0.28043066     1.99097362    -0.00004645     0.00304646     0.00140884
H        -1.01099654    -0.14883855     1.99287544     0.00104499    -0.00082956     0.00095138
H        -0.98200059     0.38265280    -0.70060950     0.00007464     0.00200766    -0.00141862
     6
  Step:    24            Position(A)                                  Velocity(au)
C        -0.04212118     0.02598859    -0.28882572    -0.00003094     0.00009936    -0.00116950
N        -0.04022254    -0.09828162     1.56681523    -0.00006588    -0.00027058     0.00104919
H         0.98308808    -0.17478774    -0.73142720     0.00017520    -0.00173253    -0.00132441
H         0.84306209     0.31392646     2.00583762    -0.00043751     0.00305294     0.00128303
H        -0.99734088    -0.15768010     2.00254013     0.00139743    -0.00078432     0.00083229
H        -0.98088394     0.40484474    -0.71626646     0.00014906     0.00204007    -0.00143513
     6
  Step:    25            Position(A)                                  Velocity(au)
C        -0.04236013     0.02706425    -0.30122895    -0.00001362     0.00009757    -0.00109706
N        -0.04089010    -0.10124645     1.57803618    -0.00004880    -0.00026990     0.00099997
H         0.98331162    -0.19381947    -0.74556880    -0.00014493    -0.00174106    -0.00125585
H         0.83590248     0.34721964     2.01904237    -0.00089958     0.00301261     0.00111211
H        -0.98042509    -0.16599702     2.01108336     0.00162351    -0.00073580     0.00075403
H        -0.97873967     0.42728325    -0.73200566     0.00026147     0.00205222    -0.00143365
     6
  Step:    26            Position(A)                                  Velocity(au)
C        -0.04241920     0.02812305    -0.31282594     0.00000147     0.00009638    -0.00102207
N        -0.04129015    -0.10418609     1.58869148    -0.00001710    -0.00026616     0.00094509
H         0.97991754    -0.21287671    -0.75890127    -0.00047824    -0.00173854    -0.00117931
H         0.82338211     0.37983313     2.03016724    -0.00140279     0.00293346     0.00090942
H        -0.96182341    -0.17377711     2.01903589     0.00169281    -0.00068846     0.00073026
H        -0.97516383     0.44974103    -0.74763029     0.00040840     0.00204378    -0.00141470
     6
  Step:    27            Position(A)                                  Velocity(au)
C        -0.04232803     0.02917274    -0.32358868     0.00001348     0.00009598    -0.00094447
N        -0.04126426    -0.10706925     1.59871193     0.00002834    -0.00025988     0.00088348
H         0.97284915    -0.23185344    -0.77136852    -0.00080908    -0.00172806    -0.00110040
H         0.80521369     0.41139480     2.03893757    -0.00191809     0.00282649     0.00068806
H        -0.94339153    -0.18105839     2.02705910     0.00158857    -0.00064653     0.00076913
H        -0.96980521     0.47199483    -0.76295498     0.00058411     0.00201572    -0.00137970
     6
  Step:    28            Position(A)                                  Velocity(au)
C        -0.04212428     0.03022288    -0.33348797     0.00002178     0.00009653    -0.00086411
N        -0.04067013    -0.10987137     1.60801940     0.00008515    -0.00025183     0.00081476
H         0.96221726    -0.25068143    -0.78297459    -0.00112256    -0.00171345    -0.00102453
H         0.78142032     0.44166799     2.04521985    -0.00241785     0.00270554     0.00046078
H        -0.92707048    -0.18792125     2.03586214     0.00131619    -0.00061292     0.00086900
H        -0.96238524     0.49383866    -0.77781393     0.00078140     0.00197016    -0.00133071
     6
  Step:    29            Position(A)                                  Velocity(au)
C        -0.04185164     0.03128444    -0.34249272     0.00002588     0.00009813    -0.00078080
N        -0.03940135    -0.11257851     1.61653638     0.00014905    -0.00024321     0.00073949
H         0.94829098    -0.26933833    -0.79378199    -0.00140470    -0.00169924    -0.00095698
H         0.75231852     0.47058369     2.04901794    -0.00287619     0.00258751     0.00024002
H        -0.91459740    -0.19446716     2.04607021     0.00090915    -0.00058811     0.00101500
H        -0.95271064     0.51509578    -0.79206677     0.00099214     0.00191026    -0.00127023
     6
  Step:    30            Position(A)                                  Velocity(au)
C        -0.04155817     0.03236966    -0.35056948     0.00002546     0.00010089    -0.00069432
N        -0.03740939    -0.11519204     1.62419721     0.00021403    -0.00023560     0.00065920
H         0.93148665    -0.28785547    -0.80391028    -0.00164287    -0.00169061    -0.00090281
H         0.71849806     0.49827470     2.05047072    -0.00326977     0.00249210     0.00003781
H        -0.90718110    -0.20078718     2.05806711     0.00042709    -0.00056974     0.00117912
H        -0.94068019     0.53562917    -0.80560262     0.00120786     0.00184005    -0.00120107
     6
  Step:    31            Position(A)                                  Velocity(au)
C        -0.04129456     0.03349166    -0.35768219     0.00002041     0.00010487    -0.00060443
N        -0.03471902    -0.11773277     1.63095758     0.00027339    -0.00023085     0.00057604
H         0.91234995    -0.30632358    -0.81353259    -0.00182662    -0.00169304    -0.00086651
H         0.68078609     0.52510322     2.04984513    -0.00357998     0.00244045    -0.00013511
H        -0.90525410    -0.20693131     2.07186573    -0.00005583    -0.00055335     0.00132530
H        -0.92628632     0.55535032    -0.81834254     0.00142010     0.00176429    -0.00112622
     6
  Step:    32            Position(A)                                  Velocity(au)
C        -0.04111175     0.03466383    -0.36379247     0.00001082     0.00011003    -0.00051096
N        -0.03142842    -0.12024226     1.63679926     0.00032124    -0.00023066     0.00049235
H         0.89152592    -0.32489388    -0.82286689    -0.00194879    -0.00171179    -0.00085152
H         0.64017921     0.55166429     2.04751501    -0.00379632     0.00245185    -0.00027100
H        -0.90840256    -0.21289280     2.08706062    -0.00046854    -0.00053411     0.00141796
H        -0.90961289     0.57422635    -0.83024086     0.00162074     0.00168833    -0.00104873
     6
  Step:    33            Position(A)                                  Velocity(au)
C        -0.04105793     0.03589867    -0.36886044    -0.00000286     0.00011619    -0.00041386
N        -0.02769137    -0.12277887     1.64172875     0.00035391    -0.00023609     0.00041016
H         0.86971648    -0.34377231    -0.83216123    -0.00200694    -0.00175111    -0.00085944
H         0.59773422     0.57874218     2.04391652    -0.00392012     0.00253828    -0.00036760
H        -0.91550440    -0.21861606     2.10288632    -0.00075926    -0.00050885     0.00143056
H        -0.89082959     0.59228570    -0.84128556     0.00180236     0.00161792    -0.00097163
     6
  Step:    34            Position(A)                                  Velocity(au)
C        -0.04117432     0.03720569    -0.37284648    -0.00001976     0.00012296    -0.00031328
N        -0.02368602    -0.12540709     1.64577224     0.00037071    -0.00024694     0.00033101
H         0.84762025    -0.36320272    -0.84166885    -0.00200478    -0.00181308    -0.00088914
H         0.55441901     0.60719403     2.03947316    -0.00396646     0.00269786    -0.00043033
H        -0.92501282    -0.22402487     2.11835689    -0.00090352    -0.00047732     0.00135047
H        -0.87018280     0.60962146    -0.85149715     0.00195858     0.00155898    -0.00089775
     6
  Step:    35            Position(A)                                  Velocity(au)
C        -0.04149014     0.03858862    -0.37571402    -0.00003857     0.00012965    -0.00020965
N        -0.01958128    -0.12818119     1.64897017     0.00037367    -0.00026144     0.00025602
H         0.82585812    -0.38343693    -0.85161292    -0.00195273    -0.00189664    -0.00093606
H         0.51096024     0.63776295     2.03450217    -0.00396220     0.00290999    -0.00047289
H        -0.93527071    -0.22905826     2.13243043    -0.00090271    -0.00044229     0.00117889
H        -0.84798197     0.62639134    -0.86092547     0.00208450     0.00151717    -0.00082946
     6
  Step:    36            Position(A)                                  Velocity(au)
C        -0.04201802     0.04004204    -0.37743293    -0.00005763     0.00013529    -0.00010372
N        -0.01551126    -0.13112668     1.65137307     0.00036646    -0.00027630     0.00018594
H         0.80490047    -0.40469529    -0.86214690    -0.00186729    -0.00199690    -0.00099205
H         0.46773839     0.67085561     2.02912785    -0.00393929     0.00313572    -0.00051484
H        -0.94476124    -0.23370079     2.14414737    -0.00077636    -0.00040874     0.00092734
H        -0.82458043     0.64281239    -0.86964315     0.00217722     0.00149741    -0.00076840
     6
  Step:    37            Position(A)                                  Velocity(au)
C        -0.04275091     0.04154842    -0.37798310    -0.00007515     0.00013870     0.00000345
N        -0.01156432    -0.13422586     1.65303793     0.00035312    -0.00028734     0.00012114
H         0.78500767    -0.42712303    -0.87331591    -0.00176886    -0.00210530    -0.00104597
H         0.42478066     0.70636278     2.02323916    -0.00392555     0.00332497    -0.00057668
H        -0.95225517    -0.23800022     2.15271781    -0.00055348    -0.00038269     0.00061324
H        -0.80035118     0.65915001    -0.87773558     0.00223635     0.00150323    -0.00071501
     6
  Step:    38            Position(A)                                  Velocity(au)
C        -0.04366210     0.04307637    -0.37735751    -0.00008949     0.00013864     0.00011058
N        -0.00778617    -0.13741273     1.65402314     0.00033702    -0.00029043     0.00006142
H         0.76620319    -0.45075283    -0.88502950    -0.00167855    -0.00221070    -0.00108515
H         0.38185956     0.74359560     2.01651177    -0.00393710     0.00342883    -0.00067406
H        -0.95686961    -0.24207281     2.15756326    -0.00026578    -0.00037022     0.00025623
H        -0.77565598     0.67569848    -0.88528547     0.00226444     0.00153598    -0.00066813
     6
  Step:    39            Position(A)                                  Velocity(au)
C        -0.04470872     0.04458154    -0.37556402    -0.00009948     0.00013408     0.00021629
N        -0.00419136    -0.14057963     1.65438152     0.00032042    -0.00028244     0.00000592
H         0.74828622    -0.47548643    -0.89705571    -0.00161456    -0.00230132    -0.00109735
H         0.33864912     0.78137501     2.00849287    -0.00397583     0.00341136    -0.00081383
H        -0.95806955    -0.24609956     2.15832339     0.00005592    -0.00037708    -0.00012393
H        -0.75081212     0.69275251    -0.89235221     0.00226710     0.00159424    -0.00062450
     6
  Step:    40            Position(A)                                  Velocity(au)
C        -0.04583839     0.04600957    -0.37262576    -0.00010459     0.00012428     0.00031919
N        -0.00077627    -0.14359157     1.65415265     0.00030453    -0.00026156    -0.00004686
H         0.73088158    -0.50109864    -0.90903608    -0.00158965    -0.00236680    -0.00107241
H         0.29488076     0.81822557     1.99870776    -0.00403181     0.00325579    -0.00099355
H        -0.95564619    -0.25032215     2.15485212     0.00038311    -0.00040907    -0.00050779
H        -0.72605880     0.71057556    -0.89894754     0.00225276     0.00167391    -0.00057847
     6
  Step:    41            Position(A)                                  Velocity(au)
C        -0.04699689     0.04730040    -0.36858117    -0.00010491     0.00010867     0.00041749
N         0.00247089    -0.14630177     1.65335627     0.00028955    -0.00022686    -0.00009905
H         0.71350969    -0.52726462    -0.92051669    -0.00161030    -0.00240038    -0.00100233
H         0.25044549     0.85260167     1.98675701    -0.00408773     0.00296384    -0.00120229
H        -0.94968829    -0.25504877     2.14721453     0.00069157    -0.00047639    -0.00087387
H        -0.70152859     0.72937255    -0.90500737     0.00223292     0.00177051    -0.00051995
     6
  Step:    42            Position(A)                                  Velocity(au)
C        -0.04813350     0.04838695    -0.36349236    -0.00009035     0.00008590     0.00049331
N         0.00555812    -0.14855450     1.65198578     0.00025684    -0.00016291    -0.00015590
H         0.69565322    -0.55361146    -0.93096402    -0.00166431    -0.00239922    -0.00083363
H         0.20545382     0.88306530     1.97240543    -0.00398076     0.00248553    -0.00137295
H        -0.94051680    -0.26074419     2.13573464     0.00099961    -0.00068738    -0.00114114
H        -0.67720935     0.74930890    -0.91032249     0.00215295     0.00184141    -0.00036408
     6
  Step:    43            Position(A)                                  Velocity(au)
C        -0.04897339     0.04917956    -0.35778908    -0.00006173     0.00005918     0.00054817
N         0.00808965    -0.14986575     1.64994556     0.00020910    -0.00007505    -0.00021769
H         0.67709964    -0.57975223    -0.93875405    -0.00174423    -0.00235970    -0.00057673
H         0.16335864     0.90697746     1.95672106    -0.00370035     0.00185470    -0.00150162
H        -0.92781989    -0.27008646     2.12224984     0.00126672    -0.00101920    -0.00130902
H        -0.65442863     0.76965688    -0.91297232     0.00200761     0.00186197    -0.00011956
     6
  Step:    44            Position(A)                                  Velocity(au)
C        -0.04948391     0.04968162    -0.35150018    -0.00003108     0.00003222     0.00059958
N         0.01013265    -0.15019641     1.64722345     0.00016782     0.00001624    -0.00028162
H         0.65749495    -0.60523432    -0.94358099    -0.00185246    -0.00228284    -0.00029399
H         0.12450165     0.92364047     1.93955469    -0.00338992     0.00117736    -0.00163534
H        -0.91280478    -0.28304108     2.10709743     0.00141805    -0.00135800    -0.00143424
H        -0.63328906     0.79004308    -0.91293817     0.00186257     0.00185383     0.00013245
     6