 Fermi distribution function

Calculation with static geometry


********************************************************************************
 iSCC Total electronic   Diff electronic      SCC error    
    9   -0.54033625E+01   -0.12415935E-09    0.57998160E-06
********************************************************************************

 Total charge:     1.00000000

 Atomic gross charges (e)
 Atom           Charge
    1       0.22586175
    2      -0.10561357
    3       0.16622290
    4       0.29205644
    5       0.26551941
    6       0.15595307

Nr. of electrons (up):     12.00000000
Atom populations (up)
 Atom       Population
    1       3.77413825
    2       5.10561357
    3       0.83377710
    4       0.70794356
    5       0.73448059
    6       0.84404693

l-shell populations (up)
 Atom Sh.   l       Population
    1   1   0       1.29485593
    1   2   1       2.47928232
    2   1   0       1.42541401
    2   2   1       3.68019956
    3   1   0       0.83377710
    4   1   0       0.70794356
    5   1   0       0.73448059
    6   1   0       0.84404693

Orbital populations (up)
 Atom Sh.   l   m       Population  Label
    1   1   0   0       1.29485593  s
    1   2   1  -1       0.55166226  p_y
    1   2   1   0       0.89573531  p_z
    1   2   1   1       1.03188475  p_x
    2   1   0   0       1.42541401  s
    2   2   1  -1       1.28993096  p_y
    2   2   1   0       1.13967262  p_z
    2   2   1   1       1.25059598  p_x
    3   1   0   0       0.83377710  s
    4   1   0   0       0.70794356  s
    5   1   0   0       0.73448059  s
    6   1   0   0       0.84404693  s

Fermi level:                        -0.4920381577 H          -13.3890 eV
Band energy:                        -8.9325090755 H         -243.0659 eV
TS:                                  0.0000000000 H            0.0000 eV
Band free energy (E-TS):            -8.9325090755 H         -243.0659 eV
Extrapolated E(0K):                 -8.9325090755 H         -243.0659 eV
Input / Output electrons (q):     12.0000000000     12.0000000000

Energy H0:                          -5.5387383224 H         -150.7167 eV
Energy SCC:                          0.1353758215 H            3.6838 eV
Total Electronic energy:            -5.4033625008 H         -147.0330 eV
Repulsive energy:                    0.1978487701 H            5.3837 eV
Total energy:                       -5.2055137307 H         -141.6492 eV
Extrapolated to 0:                  -5.2055137307 H         -141.6492 eV
Total Mermin free energy:           -5.2055137307 H         -141.6492 eV
Force related energy:               -5.2055137307 H         -141.6492 eV

SCC converged

Excitation Energy:                   0.1244730390 H            3.3871 eV

Total Forces
    1     -0.020400969562      0.001992085968     -0.000622166194
    2      0.012227212850     -0.017162402522     -0.007031546512
    3      0.004890219905      0.011711222753      0.005180667845
    4     -0.005678381443     -0.003566110094      0.007652831315
    5      0.006288907044      0.015546930718     -0.002183476773
    6      0.002673011206     -0.008521726822     -0.002996309681

Maximal derivative component:        0.204010E-01 au


