|===============================================================================
|
|  DFTB+ release 20.1
|
|  Copyright (C) 2006 - 2020  DFTB+ developers group
|
|===============================================================================
|
|  When publishing results obtained with DFTB+, please cite the following
|  reference:
|
|  * DFTB+, a software package for efficient approximate density functional
|    theory based atomistic simulations, J. Chem. Phys. 152, 124101 (2020).
|    [doi: 10.1063/1.5143190]
|
|  You should also cite additional publications crediting the parametrization
|  data you use. Please consult the documentation of the SK-files for the
|  references.
|
|===============================================================================

Reading input file 'dftb_in.hsd'
Parser version: 8

--------------------------------------------------------------------------------
Reading SK-files:
Done.


Processed input in HSD format written to 'dftb_pin.hsd'

Starting initialization...
--------------------------------------------------------------------------------
WARNING!
-> Excited state forces are not implemented yet for fractional occupations, kT=  0.3158E-02K
OpenMP threads:              1
Chosen random seed:          433656996
Mode:                        Static calculation
Self consistent charges:     Yes
SCC-tolerance:                 0.100000E-05
Max. scc iterations:                    100
Shell resolved Hubbard:      No
Spin polarisation:           No
Nr. of up electrons:             6.000000
Nr. of down electrons:           6.000000
Periodic boundaries:         No
Electronic solver:           Relatively robust
Mixer:                       Broyden mixer
Mixing parameter:                  0.200000
Maximal SCC-cycles:                     100
Nr. of chrg. vec. in memory:              0
Electronic temperature:        0.100000E-07 H      0.272114E-06 eV
Initial charges:             Set automatically (system chrg:   0.100E+01)
Included shells:             C:  s, p
                             N:  s, p
                             H:  s
Extra options:
                             Mulliken analysis
                             Force calculation
Force type                   original
                             Eigenvector printing

--------------------------------------------------------------------------------

***  Geometry step: 0

 iSCC Total electronic   Diff electronic      SCC error    
    1   -0.53937566E+01    0.00000000E+00    0.75337556E+00
    2   -0.53992323E+01   -0.54757637E-02    0.51094504E+00
    3   -0.54030163E+01   -0.37839389E-02    0.82309758E-01
    4   -0.54032167E+01   -0.20039182E-03    0.58109845E-01
    5   -0.54033613E+01   -0.14461480E-03    0.10758005E-01
    6   -0.54033624E+01   -0.11241990E-05    0.24481668E-02
    7   -0.54033625E+01   -0.10530705E-06    0.10399056E-03
    8   -0.54033625E+01   -0.40186432E-09    0.54911687E-04
    9   -0.54033625E+01   -0.12415935E-09    0.57998160E-06
>> Charges saved for restart in charges.bin

Total Energy:                       -5.0810406917 H         -138.2622 eV
Extrapolated to 0:                  -5.2055137307 H         -141.6492 eV
Total Mermin free energy:           -5.0810406917 H         -138.2622 eV
Force related energy:               -5.2055137307 H         -141.6492 eV

--------------------------------------------------------------------------------
DFTB+ running times                          cpu [s]             wall clock [s]
--------------------------------------------------------------------------------
SCC                                    +     0.01  ( 49.5%)      0.07  ( 76.3%)
Post-SCC processing                    +     0.01  ( 44.6%)      0.02  ( 18.6%)
--------------------------------------------------------------------------------
Missing                                +     0.00  (  5.9%)      0.01  (  5.2%)
Total                                  =     0.02  (100.0%)      0.10  (100.0%)
--------------------------------------------------------------------------------
