     6
  Step:   120            Position(A)                                  Velocity(au)
C        -0.03426918     0.03553320    -0.08808627     0.00005703     0.00000343     0.00061623
N        -0.05550717    -0.01087622     1.40487069    -0.00007612    -0.00000785    -0.00053824
H         0.74209688    -0.58293649    -0.61408114    -0.00127319    -0.00138044     0.00069887
H         0.82898424     0.04493534     1.98412182    -0.00026090     0.00144147    -0.00018426
H        -0.69578211    -0.77176315     1.73860061     0.00136886    -0.00121775    -0.00070332
H        -0.90852994     0.36770648    -0.68953350     0.00054354     0.00122498     0.00032521
