|===============================================================================
|
|  DFTB+ release 20.1
|
|  Copyright (C) 2006 - 2020  DFTB+ developers group
|
|===============================================================================
|
|  When publishing results obtained with DFTB+, please cite the following
|  reference:
|
|  * DFTB+, a software package for efficient approximate density functional
|    theory based atomistic simulations, J. Chem. Phys. 152, 124101 (2020).
|    [doi: 10.1063/1.5143190]
|
|  You should also cite additional publications crediting the parametrization
|  data you use. Please consult the documentation of the SK-files for the
|  references.
|
|===============================================================================

Reading input file 'dftb_in.hsd'
Parser version: 8

--------------------------------------------------------------------------------
Reading SK-files:
Done.


Processed input in HSD format written to 'dftb_pin.hsd'

Starting initialization...
--------------------------------------------------------------------------------
WARNING!
-> Excited state forces are not implemented yet for fractional occupations, kT=  0.3158E-02K
OpenMP threads:              1
Chosen random seed:          509071929
Mode:                        Static calculation
Self consistent charges:     Yes
SCC-tolerance:                 0.100000E-05
Max. scc iterations:                    100
Shell resolved Hubbard:      No
Spin polarisation:           No
Nr. of up electrons:             6.000000
Nr. of down electrons:           6.000000
Periodic boundaries:         No
Electronic solver:           Relatively robust
Mixer:                       Broyden mixer
Mixing parameter:                  0.200000
Maximal SCC-cycles:                     100
Nr. of chrg. vec. in memory:              0
Electronic temperature:        0.100000E-07 H      0.272114E-06 eV
Initial charges:             Set automatically (system chrg:   0.100E+01)
Included shells:             C:  s, p
                             N:  s, p
                             H:  s
Extra options:
                             Mulliken analysis
                             Force calculation
Force type                   original
                             Eigenvector printing

--------------------------------------------------------------------------------

***  Geometry step: 0

 iSCC Total electronic   Diff electronic      SCC error    
    1   -0.52218981E+01    0.00000000E+00    0.11397580E+01
    2   -0.52544009E+01   -0.32502778E-01    0.66316326E+00
    3   -0.52617371E+01   -0.73362310E-02    0.32411471E+00
    4   -0.47852174E+01    0.47651978E+00    0.22724615E+01
    5   -0.52666646E+01   -0.48144727E+00    0.69250390E-01
    6   -0.52671358E+01   -0.47116693E-03    0.31639659E-01
    7   -0.52671928E+01   -0.57010223E-04    0.15820405E-01
    8   -0.52672113E+01   -0.18522555E-04    0.26435856E-02
    9   -0.52672113E+01   -0.14316976E-07    0.25169756E-02
   10   -0.52672119E+01   -0.59677597E-06    0.14710262E-03
   11   -0.52672119E+01   -0.14275638E-08    0.83451295E-04
   12   -0.52672119E+01   -0.70799988E-09    0.94073907E-05
   13   -0.52672119E+01   -0.88551388E-11    0.71188869E-07
>> Charges saved for restart in charges.bin

Total Energy:                       -5.0263046443 H         -136.7727 eV
Extrapolated to 0:                  -5.1405475014 H         -139.8814 eV
Total Mermin free energy:           -5.0263046443 H         -136.7727 eV
Force related energy:               -5.1405475014 H         -139.8814 eV

--------------------------------------------------------------------------------
DFTB+ running times                          cpu [s]             wall clock [s]
--------------------------------------------------------------------------------
SCC                                    +     0.02  ( 56.2%)      0.05  ( 68.9%)
Post-SCC processing                    +     0.01  ( 38.9%)      0.02  ( 25.7%)
--------------------------------------------------------------------------------
Missing                                +     0.00  (  4.9%)      0.00  (  5.4%)
Total                                  =     0.03  (100.0%)      0.07  (100.0%)
--------------------------------------------------------------------------------
