|===============================================================================
|
|  DFTB+ release 20.1
|
|  Copyright (C) 2006 - 2020  DFTB+ developers group
|
|===============================================================================
|
|  When publishing results obtained with DFTB+, please cite the following
|  reference:
|
|  * DFTB+, a software package for efficient approximate density functional
|    theory based atomistic simulations, J. Chem. Phys. 152, 124101 (2020).
|    [doi: 10.1063/1.5143190]
|
|  You should also cite additional publications crediting the parametrization
|  data you use. Please consult the documentation of the SK-files for the
|  references.
|
|===============================================================================

Reading input file 'dftb_in.hsd'
Parser version: 8

--------------------------------------------------------------------------------
Reading SK-files:
Done.


Processed input in HSD format written to 'dftb_pin.hsd'

Starting initialization...
--------------------------------------------------------------------------------
WARNING!
-> Excited state forces are not implemented yet for fractional occupations, kT=  0.3158E-02K
OpenMP threads:              1
Chosen random seed:          506586786
Mode:                        Static calculation
Self consistent charges:     Yes
SCC-tolerance:                 0.100000E-05
Max. scc iterations:                    100
Shell resolved Hubbard:      No
Spin polarisation:           No
Nr. of up electrons:             6.000000
Nr. of down electrons:           6.000000
Periodic boundaries:         No
Electronic solver:           Relatively robust
Mixer:                       Broyden mixer
Mixing parameter:                  0.200000
Maximal SCC-cycles:                     100
Nr. of chrg. vec. in memory:              0
Electronic temperature:        0.100000E-07 H      0.272114E-06 eV
Initial charges:             Set automatically (system chrg:   0.100E+01)
Included shells:             C:  s, p
                             N:  s, p
                             H:  s
Extra options:
                             Mulliken analysis
                             Force calculation
Force type                   original
                             Eigenvector printing

--------------------------------------------------------------------------------

***  Geometry step: 0

 iSCC Total electronic   Diff electronic      SCC error    
    1   -0.53591132E+01    0.00000000E+00    0.99962599E+00
    2   -0.53676308E+01   -0.85175711E-02    0.69786938E+00
    3   -0.53741553E+01   -0.65245175E-02    0.12946038E+00
    4   -0.53704632E+01    0.36920936E-02    0.25772457E+00
    5   -0.53751790E+01   -0.47157788E-02    0.18280872E-01
    6   -0.53751674E+01    0.11659803E-04    0.22297695E-01
    7   -0.53751872E+01   -0.19841133E-04    0.46644579E-02
    8   -0.53751879E+01   -0.71469852E-06    0.23515689E-02
    9   -0.53751881E+01   -0.23709700E-06    0.95086152E-04
   10   -0.53751881E+01   -0.29541525E-09    0.41200554E-04
   11   -0.53751881E+01   -0.76695095E-10    0.71937319E-05
   12   -0.53751881E+01   -0.23367974E-11    0.40986139E-08
>> Charges saved for restart in charges.bin

Total Energy:                       -5.1115778437 H         -139.0931 eV
Extrapolated to 0:                  -5.1870644503 H         -141.1472 eV
Total Mermin free energy:           -5.1115778437 H         -139.0931 eV
Force related energy:               -5.1870644503 H         -141.1472 eV

--------------------------------------------------------------------------------
DFTB+ running times                          cpu [s]             wall clock [s]
--------------------------------------------------------------------------------
SCC                                    +     0.01  ( 59.0%)      0.12  ( 82.8%)
Post-SCC processing                    +     0.01  ( 36.1%)      0.02  ( 13.1%)
--------------------------------------------------------------------------------
Missing                                +     0.00  (  5.0%)      0.01  (  4.1%)
Total                                  =     0.02  (100.0%)      0.14  (100.0%)
--------------------------------------------------------------------------------
