    14
  Step:   600            Position(A)                                  Velocity(au)
C        -5.82636636    -0.76265067     0.17425513    -0.00080507     0.00028936     0.00010019
C        -4.80270526     0.10972840     0.31678609    -0.00009267    -0.00117643    -0.00002355
H        -5.76004964    -1.59566647    -0.49640816    -0.00075199    -0.00041999     0.00146543
H        -6.50768859    -0.80091771     1.01831932    -0.00045018     0.00104991     0.00032388
H        -4.84348772     0.86104046     1.22849605     0.00023466     0.00138061    -0.00152340
C        -3.65317097    -0.08767988    -0.47481835     0.00037014     0.00013681     0.00014722
C        -2.40611045     0.54305085    -0.58199672     0.00014398     0.00090250    -0.00029771
H        -3.85831727    -0.85468297    -1.45583325     0.00323072    -0.00355539     0.00097980
H        -1.79744137     0.26624258    -1.45641502    -0.00108568     0.00076443     0.00073783
C        -2.00383402     1.36802497     0.47618052     0.00056267     0.00062585    -0.00032620
H        -2.75209765     1.84114251     1.08366519    -0.00123126    -0.00169662    -0.00136581
N        -0.81426291     1.83197245     0.39880555    -0.00018236    -0.00031618     0.00046116
H        -0.05126437     1.89487567     1.11137073     0.00148653    -0.00310478    -0.00129909
H        -0.35109164     1.62365698    -0.49376455    -0.00103229     0.00070389    -0.00096016
