    14
  Step:     0            Position(A)                                  Velocity(au)
C        -6.01038365    -0.78845328    -0.08187321    -0.00015417     0.00010078     0.00028312
C        -4.63203153    -0.73669998     0.11370908     0.00034655    -0.00015668    -0.00010283
H        -6.64745434    -0.00160387    -0.45249741     0.00030739     0.00037294    -0.00069468
H        -6.38713794    -1.79766075     0.05787040     0.00125003     0.00059275    -0.00009668
H        -4.09276116    -1.59415840     0.52065174    -0.00017145    -0.00054646     0.00087967
C        -3.93896090     0.50111776    -0.04089793    -0.00015875    -0.00015605    -0.00025331
C        -2.56061200     0.57759960     0.13287579    -0.00010353     0.00014709    -0.00017805
H        -4.54182161     1.34440896    -0.34365745     0.00064821     0.00108690    -0.00028913
H        -2.09603301    -0.27973484     0.59590533     0.00058706     0.00024269     0.00058368
C        -1.83283152     1.71133348    -0.06093414     0.00010176     0.00039742     0.00026975
H        -2.21179532     2.68964656    -0.34359691    -0.00135801    -0.00051257    -0.00065624
N        -0.55527978     1.71566424     0.25027396    -0.00016971    -0.00039529    -0.00010344
H         0.00772953     2.52262059     0.21541784    -0.00012919    -0.00000863     0.00105586
H        -0.18269682     0.84329841     0.53650954     0.00084459     0.00030267     0.00043237
    14
  Step:     1            Position(A)                                  Velocity(au)
C        -6.01203638    -0.78753285    -0.07877641    -0.00014548     0.00007119     0.00028207
C        -4.62817854    -0.73818608     0.11260050     0.00035626    -0.00011522    -0.00009939
H        -6.64408947     0.00287958    -0.46014036     0.00031289     0.00043443    -0.00069620
H        -6.37456938    -1.79099079     0.05687971     0.00102444     0.00058999    -0.00007863
H        -4.09470226    -1.60023512     0.52987302    -0.00018709    -0.00054818     0.00079746
C        -3.94122846     0.49919149    -0.04373208    -0.00025503    -0.00019462    -0.00026525
C        -2.56148126     0.57916437     0.13102262    -0.00005317     0.00013866    -0.00015978
H        -4.53465897     1.35690155    -0.34687607     0.00066511     0.00117043    -0.00029301
H        -2.08906218    -0.27742204     0.60231639     0.00067261     0.00019733     0.00057782
C        -1.83181658     1.71586807    -0.05803912     0.00008009     0.00042806     0.00025915
H        -2.22726628     2.68379410    -0.35114399    -0.00145508    -0.00054939    -0.00071900
N        -0.55698440     1.71130169     0.24917433    -0.00013865    -0.00039910    -0.00009755
H         0.00742544     2.52390221     0.22691029     0.00005600     0.00022028     0.00104680
H        -0.17229450     0.84562472     0.54173045     0.00104439     0.00012182     0.00052012
    14
  Step:     2            Position(A)                                  Velocity(au)
C        -6.01356638    -0.78689582    -0.07570241    -0.00013241     0.00004910     0.00027886
C        -4.62423771    -0.73922054     0.11153484     0.00036268    -0.00007433    -0.00009498
H        -6.64060918     0.00790018    -0.46772816     0.00032965     0.00046949    -0.00068365
H        -6.36472635    -1.78475351     0.05615011     0.00075485     0.00051522    -0.00004948
H        -4.09685422    -1.60615094     0.53809768    -0.00020881    -0.00051771     0.00069800
C        -3.94454017     0.49686009    -0.04670089    -0.00034884    -0.00022988    -0.00027783
C        -2.56177527     0.58063314     0.12938032     0.00000110     0.00012965    -0.00013961
H        -4.52727099     1.37001444    -0.35006771     0.00068843     0.00119966    -0.00028430
H        -2.08131840    -0.27541797     0.60854617     0.00072828     0.00018589     0.00055058
C        -1.83107931     1.72069802    -0.05526475     0.00005139     0.00045123     0.00024784
H        -2.24362790     2.67762771    -0.35932647    -0.00152033    -0.00057012    -0.00077216
N        -0.55831310     1.70693307     0.24813996    -0.00010029    -0.00039639    -0.00009123
H         0.00895454     2.52743959     0.23831866     0.00019768     0.00039127     0.00103963
H        -0.15984872     0.84596345     0.54788826     0.00121128    -0.00004718     0.00059880
    14
  Step:     3            Position(A)                                  Velocity(au)
C        -6.01493315    -0.78645878    -0.07267574    -0.00011635     0.00003425     0.00027343
C        -4.62024430    -0.73981217     0.11052271     0.00036585    -0.00003451    -0.00008960
H        -6.63687770     0.01315062    -0.47509646     0.00035898     0.00047610    -0.00065571
H        -6.35805567    -1.77971937     0.05579721     0.00044922     0.00037640    -0.00001089
H        -4.09927030    -1.61156094     0.54514300    -0.00023376    -0.00045743     0.00058290
C        -3.94886003     0.49416239    -0.04981016    -0.00043830    -0.00026135    -0.00029080
C        -2.56145717     0.58200073     0.12796848     0.00005788     0.00012025    -0.00011783
H        -4.51959815     1.38314635    -0.35309557     0.00071541     0.00117488    -0.00026381
H        -2.07312965    -0.27335529     0.61436129     0.00075490     0.00020615     0.00050289
C        -1.83069227     1.72573967    -0.05261710     0.00001671     0.00046679     0.00023612
H        -2.26052636     2.67132156    -0.36803654    -0.00155305    -0.00057548    -0.00081518
N        -0.55917842     1.70262984     0.24717855    -0.00005375    -0.00038743    -0.00008395
H         0.01175008     2.53246201     0.24965419     0.00028373     0.00048552     0.00103216
H        -0.14579554     0.84459258     0.55483038     0.00133251    -0.00018002     0.00065938
    14
  Step:     4            Position(A)                                  Velocity(au)
C        -6.01611187    -0.78614664    -0.06972070    -0.00009871     0.00002540     0.00026588
C        -4.61623409    -0.73997547     0.10957466     0.00036556     0.00000363    -0.00008328
H        -6.63275578     0.01831579    -0.48207303     0.00040032     0.00045480    -0.00061228
H        -6.35489881    -1.77651900     0.05591184     0.00011865     0.00019084     0.00003441
H        -4.10196826    -1.61615817     0.55084976    -0.00025842    -0.00037169     0.00045476
C        -3.95412891     0.49114256    -0.05306263    -0.00052107    -0.00028847    -0.00030384
C        -2.56050911     0.58326387     0.12680256     0.00011513     0.00011060    -0.00009488
H        -4.51162011     1.39571712    -0.35583910     0.00074191     0.00109941    -0.00023354
H        -2.06480357    -0.27090809     0.61954792     0.00075516     0.00025313     0.00043718
C        -1.83071365     1.73090993    -0.05009915    -0.00002245     0.00047497     0.00022425
H        -2.27760384     2.66503791    -0.37716019    -0.00155319    -0.00056684    -0.00084748
N        -0.55948901     1.69845720     0.24630337     0.00000079    -0.00037296    -0.00007531
H         0.01516170     2.53806130     0.26089905     0.00031083     0.00049662     0.00102167
H        -0.13069751     0.84202520     0.56231342     0.00139867    -0.00025964     0.00069499
    14
  Step:     5            Position(A)                                  Velocity(au)
C        -6.01709256    -0.78590308    -0.06685919    -0.00008074     0.00002049     0.00025652
C        -4.61224707    -0.73973268     0.10870088     0.00036124     0.00003928    -0.00007605
H        -6.62812004     0.02310030    -0.48849115     0.00045151     0.00040848    -0.00055442
H        -6.35546000    -1.77554440     0.05655007    -0.00022336    -0.00001650     0.00008303
H        -4.10492375    -1.61969233     0.55509170    -0.00027877    -0.00026629     0.00031693
C        -3.96025951     0.48785160    -0.05645731    -0.00059446    -0.00031052    -0.00031663
C        -2.55893850     0.58442021     0.12589271     0.00017042     0.00010075    -0.00007129
H        -4.50336738     1.40719804    -0.35820461     0.00076307     0.00097903    -0.00019625
H        -2.05660903    -0.26781767     0.62392550     0.00073321     0.00031988     0.00035686
C        -1.83118332     1.73613051    -0.04771124    -0.00006433     0.00047633     0.00021245
H        -2.29450545     2.65892077    -0.38657673    -0.00152131    -0.00054604    -0.00086847
N        -0.55916119     1.69447058     0.24553109     0.00006217    -0.00035392    -0.00006512
H         0.01855012     2.54332654     0.27200510     0.00028348     0.00042934     0.00100568
H        -0.11519703     0.83891252     0.57003451     0.00140505    -0.00027820     0.00070193
    14
  Step:     6            Position(A)                                  Velocity(au)
C        -6.01787819    -0.78569837    -0.06410885    -0.00006350     0.00001694     0.00024580
C        -4.60833129    -0.73911616     0.10791084     0.00035203     0.00007144    -0.00006801
H        -6.62287821     0.02725207    -0.49420203     0.00050922     0.00034187    -0.00048425
H        -6.35978527    -1.77687995     0.05772819    -0.00056213    -0.00021663     0.00013134
H        -4.10806691    -1.62198368     0.55778317    -0.00029067    -0.00014810     0.00017335
C        -3.96713378     0.48434929    -0.05998954    -0.00065574    -0.00032669    -0.00032885
C        -2.55678077     0.58546793     0.12524302     0.00022126     0.00009078    -0.00004760
H        -4.49492659     1.41713521    -0.36013236     0.00077374     0.00082138    -0.00015516
H        -2.04876311    -0.26391017     0.62735483     0.00069416     0.00039825     0.00026604
C        -1.83212110     1.74133051    -0.04545134    -0.00010707     0.00047159     0.00020094
H        -2.31088543     2.65309216    -0.39615953    -0.00145856    -0.00051510    -0.00087770
N        -0.55812882     1.69071456     0.24487885     0.00012845    -0.00033126    -0.00005348
H         0.02136332     2.54745392     0.28290015     0.00021193     0.00029692     0.00098248
H        -0.09995927     0.83593896     0.57766959     0.00135215    -0.00023696     0.00067998
    14
  Step:     7            Position(A)                                  Velocity(au)
C        -6.01848169    -0.78553241    -0.06148194    -0.00004775     0.00001215     0.00023421
C        -4.60454567    -0.73816971     0.10721308     0.00033691     0.00009909    -0.00005925
H        -6.61697982     0.03057946    -0.49908514     0.00056938     0.00026100    -0.00040470
H        -6.36775768    -1.78028351     0.05942339    -0.00088332    -0.00038143     0.00017613
H        -4.11128278    -1.62293231     0.55888401    -0.00029013    -0.00002466     0.00002829
C        -3.97460506     0.48070470    -0.06365144    -0.00070256    -0.00033615    -0.00034022
C        -2.55409802     0.58640616     0.12485129     0.00026541     0.00008081    -0.00002441
H        -4.48644025     1.42516729    -0.36159911     0.00076900     0.00063552    -0.00011359
H        -2.04142306    -0.25910517     0.62974557     0.00064361     0.00047962     0.00016945
C        -1.83352575     1.74644753    -0.04331529    -0.00014874     0.00046153     0.00018990
H        -2.32641430     2.64765187    -0.40577820    -0.00136677    -0.00047593    -0.00087500
N        -0.55635100     1.68722363     0.24436104     0.00019710    -0.00030583    -0.00004078
H         0.02318646     2.54982231     0.29349876     0.00010989     0.00011801     0.00095139
H        -0.08561617     0.83372859     0.58491027     0.00124516    -0.00014465     0.00063194
    14
  Step:     8            Position(A)                                  Velocity(au)
C        -6.01892284    -0.78543266    -0.05898506    -0.00003400     0.00000386     0.00022226
C        -4.60096080    -0.73694845     0.10661468     0.00031486     0.00012124    -0.00004992
H        -6.61042204     0.03296199    -0.50305560     0.00062755     0.00017260    -0.00031923
H        -6.37910949    -1.78522445     0.06158136    -0.00117436    -0.00048828     0.00021502
H        -4.11441407    -1.62252309     0.55840208    -0.00027349     0.00009623    -0.00011383
C        -3.98250362     0.47699532    -0.06743250    -0.00073315    -0.00033826    -0.00035055
C        -2.55097445     0.58723591     0.12470899     0.00030114     0.00007111    -0.00000227
H        -4.47810314     1.43103848    -0.36261728     0.00074438     0.00043152    -0.00007471
H        -2.03468289    -0.25341750     0.63106184     0.00058740     0.00055533     0.00007215
C        -1.83537501     1.75142737    -0.04129683    -0.00018750     0.00044683     0.00017953
H        -2.34078615     2.64268021    -0.41530192    -0.00124838    -0.00043014    -0.00086049
N        -0.55381687     1.68402391     0.24398667     0.00026528    -0.00027834    -0.00002759
H         0.02376737     2.55003567     0.30371373    -0.00000727    -0.00008586     0.00091277
H        -0.07271910     0.83277437     0.59149448     0.00109301    -0.00001527     0.00056308
    14
  Step:     9            Position(A)                                  Velocity(au)
C        -6.01922549    -0.78544797    -0.05661956    -0.00002250    -0.00000949     0.00021039
C        -4.59765758    -0.73551739     0.10612106     0.00028506     0.00013710    -0.00004018
H        -6.60325097     0.03435534    -0.50606894     0.00067935     0.00008363    -0.00023159
H        -6.39344894    -1.79096567     0.06412733    -0.00142554    -0.00052308     0.00024671
H        -4.11726589    -1.62082715     0.55639379    -0.00023763     0.00020680    -0.00024865
C        -3.99064416     0.47330469    -0.07132037    -0.00074647    -0.00033259    -0.00035969
C        -2.54751000     0.58796172     0.12480159     0.00032732     0.00006203     0.00001829
H        -4.47015559     1.43460762    -0.36323346     0.00069609     0.00022010    -0.00004153
H        -2.02857254    -0.24695617     0.63132410     0.00053129     0.00061703    -0.00002072
C        -1.83762758     1.75622285    -0.03938779    -0.00022172     0.00042809     0.00016998
H        -2.35372494     2.63824172    -0.42460306    -0.00110640    -0.00037895    -0.00083461
N        -0.55054747     1.68113443     0.24375739     0.00033010    -0.00024938    -0.00001464
H         0.02302743     2.54794406     0.31346742    -0.00012371    -0.00029191     0.00086793
H        -0.06170439     0.83339455     0.59722866     0.00090725     0.00013416     0.00048031
    14
  Step:    10            Position(A)                                  Velocity(au)
C        -6.01941510    -0.78564019    -0.05438240    -0.00001330    -0.00002869     0.00019895
C        -4.59472453    -0.73394917     0.10573577     0.00024699     0.00014609    -0.00003019
H        -6.59555988     0.03479152    -0.50812209     0.00072073     0.00000085    -0.00014557
H        -6.41029582    -1.79666791     0.06697872    -0.00163054    -0.00048117     0.00027099
H        -4.11961261    -1.61799901     0.55296228    -0.00018015     0.00029978    -0.00037214
C        -3.99883397     0.46971922    -0.07530142    -0.00074216    -0.00031906    -0.00036755
C        -2.54381373     0.58859294     0.12510908     0.00034337     0.00005407     0.00003681
H        -4.46287489     1.43585355    -0.36352590     0.00062119     0.00001230    -0.00001682
H        -2.02305998    -0.23991889     0.63060854     0.00048070     0.00065702    -0.00010427
C        -1.84022556     1.76079265    -0.03757823    -0.00025004     0.00040578     0.00016140
H        -2.36499066     2.63439003    -0.43356058    -0.00094432    -0.00032315    -0.00079814
N        -0.54659539     1.67856818     0.24366643     0.00038875    -0.00021948    -0.00000272
H         0.02106094     2.54364962     0.32270134    -0.00022401    -0.00047737     0.00081898
H        -0.05287132     0.83570940     0.60200208     0.00070094     0.00028516     0.00039161
    14
  Step:    11            Position(A)                                  Velocity(au)
C        -6.01951648    -0.78607553    -0.05226704    -0.00000629    -0.00005383     0.00018823
C        -4.59225430    -0.73232143     0.10546061     0.00020047     0.00014791    -0.00002012
H        -6.58748355     0.03437403    -0.50925358     0.00074822    -0.00006957    -0.00006475
H        -6.42912019    -1.80149220     0.07005574    -0.00178639    -0.00036614     0.00028848
H        -4.12120705    -1.61426895     0.54825251    -0.00009966     0.00036889    -0.00048083
C        -4.00688037     0.46632455    -0.07936128    -0.00072057    -0.00029795    -0.00037407
C        -2.53999818     0.58914453     0.12560679     0.00034919     0.00004772     0.00005290
H        -4.45656579     1.43487670    -0.36360152     0.00051770    -0.00018087    -0.00000303
H        -2.01805624    -0.23258262     0.62904296     0.00044045     0.00066879    -0.00017415
C        -1.84309760     1.76510015    -0.03585681    -0.00027137     0.00038032     0.00015391
H        -2.37438364     2.63117219    -0.44206400    -0.00076599    -0.00026317    -0.00075218
N        -0.54204273     1.67633281     0.24369798     0.00043873    -0.00018909     0.00000736
H         0.01812686     2.53750077     0.33138407    -0.00029391    -0.00062062     0.00076865
H        -0.04636994     0.83963307     0.60579589     0.00048784     0.00041909     0.00030550
    14
  Step:    12            Position(A)                                  Velocity(au)
C        -6.01955265    -0.78681780    -0.05026449    -0.00000127    -0.00008444     0.00017839
C        -4.59033882    -0.73071339     0.10529572     0.00014580     0.00014256    -0.00001009
H        -6.57919111     0.03326955    -0.50953871     0.00075919    -0.00012246     0.00000781
H        -6.44937643    -1.80467791     0.07328978    -0.00189295    -0.00018772     0.00030046
H        -4.12179285    -1.60992875     0.54244331     0.00000405     0.00040949    -0.00057215
C        -4.01459776     0.46320101    -0.08348500    -0.00068258    -0.00026992    -0.00037921
C        -2.53617459     0.58963697     0.12626629     0.00034506     0.00004345     0.00006627
H        -4.45154916     1.43189666    -0.36359212     0.00038469    -0.00034892    -0.00000219
H        -2.01342432    -0.22528783     0.62679865     0.00041426     0.00064756    -0.00022698
C        -1.84616237     1.76911287    -0.03421119    -0.00028496     0.00035206     0.00014757
H        -2.38174826     2.62863268    -0.45001594    -0.00057558    -0.00019913    -0.00069801
N        -0.53699723     1.67443147     0.24382733     0.00047793    -0.00015855     0.00001479
H         0.01463105     2.53007242     0.33951709    -0.00032141    -0.00070273     0.00072007
H        -0.04219882     0.84487777     0.60868557     0.00028146     0.00051818     0.00023049
    14
  Step:    13            Position(A)                                  Velocity(au)
C        -6.01954422    -0.78792290    -0.04836434     0.00000198    -0.00011964     0.00016953
C        -4.58906473    -0.72920274     0.10523991     0.00008366     0.00013029    -0.00000020
H        -6.57087491     0.03169505    -0.50908271     0.00075211    -0.00015400     0.00006981
H        -6.47053200    -1.80559902     0.07662897    -0.00195242     0.00004041     0.00030858
H        -4.12111851    -1.60531049     0.53573564     0.00012973     0.00041915    -0.00064476
C        -4.02181316     0.46041950    -0.08765712    -0.00062960    -0.00023601    -0.00038290
C        -2.53244935     0.59009512     0.12705659     0.00033158     0.00004157     0.00007678
H        -4.44814987     1.42724336    -0.36364950     0.00022244    -0.00048258    -0.00001584
H        -2.00899350    -0.21841598     0.62407723     0.00040435     0.00059095    -0.00026084
C        -1.84933169     1.77280223    -0.03262846    -0.00029035     0.00032138     0.00014241
H        -2.38697549     2.62681584    -0.45733428    -0.00037732    -0.00013100    -0.00063709
N        -0.53158699     1.67286412     0.24402147     0.00050484    -0.00012806     0.00001889
H         0.01109546     2.52212715     0.34713695    -0.00029799    -0.00070961     0.00067632
H        -0.04021248     0.85096927     0.61083822     0.00009415     0.00056680     0.00017449
    14
  Step:    14            Position(A)                                  Velocity(au)
C        -6.01950942    -0.78943525    -0.04655578     0.00000364    -0.00015826     0.00016162
C        -4.58850850    -0.72786294     0.10529126     0.00001522     0.00011163     0.00000949
H        -6.56273730     0.02990040    -0.50801144     0.00072677    -0.00016217     0.00011991
H        -6.49208932    -1.80379394     0.08004066    -0.00196876     0.00030263     0.00031465
H        -4.11895486    -1.60075899     0.52833796     0.00027447     0.00039817    -0.00069872
C        -4.02837144     0.45803787    -0.09186171    -0.00056343    -0.00019753    -0.00038512
C        -2.52892060     0.59054641     0.12794589     0.00030962     0.00004219     0.00008442
H        -4.44668286     1.42133932    -0.36393862     0.00003259    -0.00057469    -0.00004474
H        -2.00457839    -0.21235976     0.62109225     0.00041101     0.00049952    -0.00027562
C        -1.85251438     1.77614357    -0.03109569    -0.00028741     0.00028862     0.00013841
H        -2.39000292     2.62576684    -0.46395345    -0.00017544    -0.00005871    -0.00057095
N        -0.52595292     1.67162983     0.24424061     0.00051870    -0.00009755     0.00001916
H         0.00811185     2.51454834     0.35431286    -0.00022029    -0.00063476     0.00063997
H        -0.04013912     0.85727764     0.61250291    -0.00006398     0.00055302     0.00014412
    14
  Step:    15            Position(A)                                  Velocity(au)
C        -6.01946467    -0.79138511    -0.04482867     0.00000385    -0.00019890     0.00015455
C        -4.58873179    -0.72676071     0.10544760    -0.00005800     0.00008723     0.00001901
H        -6.55497547     0.02814734    -0.50645939     0.00068436    -0.00014693     0.00015794
H        -6.51360232    -1.79897845     0.08351264    -0.00194728     0.00058256     0.00032056
H        -4.11511396    -1.59659982     0.52044984     0.00043359     0.00034989    -0.00073560
C        -4.03413917     0.45609822    -0.09608244    -0.00048620    -0.00015597    -0.00038584
C        -2.52567583     0.59101821     0.12890340     0.00028024     0.00004518     0.00008939
H        -4.44743690     1.41467082    -0.36462834    -0.00018165    -0.00062122    -0.00008875
H        -2.00000176    -0.20748810     0.61804751     0.00043233     0.00037719    -0.00027330
C        -1.85561933     1.77911641    -0.02960039    -0.00027626     0.00025421     0.00013552
H        -2.39081347     2.62553137    -0.46982485     0.00002607     0.00001768    -0.00050110
N        -0.52023947     1.67072998     0.24444068     0.00051969    -0.00006666     0.00001538
H         0.00627613     2.50824055     0.36113750    -0.00009145    -0.00048186     0.00061244
H        -0.04161215     0.86306769     0.61399107    -0.00018643     0.00047068     0.00014358
    14
  Step:    16            Position(A)                                  Velocity(au)
C        -6.01942514    -0.79378655    -0.04317473     0.00000271    -0.00024001     0.00014810
C        -4.58977734    -0.72595451     0.10570718    -0.00013411     0.00005792     0.00002841
H        -6.54776560     0.02668608    -0.50455628     0.00062748    -0.00011041     0.00018493
H        -6.53468985    -1.79104937     0.08705362    -0.00189445     0.00086377     0.00032823
H        -4.10946922    -1.59310453     0.51224531     0.00060062     0.00028070    -0.00075839
C        -4.03900796     0.45462582    -0.10030279    -0.00040032    -0.00011283    -0.00038506
C        -2.52278983     0.59153475     0.12990137     0.00024468     0.00005009     0.00009204
H        -4.45065679     1.40774899    -0.36588011    -0.00041535    -0.00062213    -0.00014656
H        -1.99512032    -0.20410796     0.61511337     0.00046407     0.00023128    -0.00025793
C        -1.85855809     1.78170484    -0.02813088    -0.00025725     0.00021857     0.00013364
H        -2.38943253     2.62615371    -0.47491604     0.00022351     0.00009791    -0.00042895
N        -0.51458380     1.67017142     0.24457717     0.00050899    -0.00003481     0.00000774
H         0.00611111     2.50400667     0.36771117     0.00007827    -0.00026608     0.00059348
H        -0.04421766     0.86757476     0.61564407    -0.00027160     0.00032153     0.00017362
    14
  Step:    17            Position(A)                                  Velocity(au)
C        -6.01940533    -0.79663583    -0.04158868     0.00000027    -0.00027991     0.00014195
C        -4.59166569    -0.72549362     0.10606912    -0.00021098     0.00002454     0.00003778
H        -6.54124808     0.02573202    -0.50241373     0.00055997    -0.00005675     0.00020308
H        -6.55504695    -1.78008191     0.09069338    -0.00181768     0.00113021     0.00033960
H        -4.10197428    -1.59045901     0.50385864     0.00076755     0.00019946    -0.00077111
C        -4.04289689     0.45362983    -0.10450645    -0.00030838    -0.00006949    -0.00038283
C        -2.52032300     0.59211410     0.13091689     0.00020429     0.00005628     0.00009288
H        -4.45652351     1.40106061    -0.36783454    -0.00066171    -0.00058218    -0.00021560
H        -1.98984934    -0.20242844     0.61240486     0.00050002     0.00007192    -0.00023527
C        -1.86124721     1.78389812    -0.02667675    -0.00023091     0.00018221     0.00013264
H        -2.38592369     2.62767336    -0.47920900     0.00041364     0.00018132    -0.00035568
N        -0.50910432     1.66996850     0.24460993     0.00048876    -0.00000131    -0.00000314
H         0.00798834     2.50241946     0.37412107     0.00027228    -0.00001316     0.00058094
H        -0.04755393     0.87010181     0.61778944    -0.00032344     0.00011656     0.00023070
    14
  Step:    18            Position(A)                                  Velocity(au)
C        -6.01941925    -0.79991022    -0.04006926    -0.00000342    -0.00031685     0.00013570
C        -4.59439300    -0.72541763     0.10653359    -0.00028636    -0.00001199     0.00004719
H        -6.53551519     0.02544466    -0.50011354     0.00048656     0.00000825     0.00021548
H        -6.57445503    -1.76632393     0.09448298    -0.00172531     0.00136649     0.00035661
H        -4.09267751    -1.58874107     0.49537575     0.00092539     0.00011642    -0.00077825
C        -4.04575431     0.45310570    -0.10867801    -0.00021310    -0.00002703    -0.00037927
C        -2.51832054     0.59276590     0.13193324     0.00016048     0.00006291     0.00009249
H        -4.46513298     1.39501274    -0.37059685    -0.00091205    -0.00051100    -0.00029206
H        -1.98418146    -0.20253457     0.60996631     0.00053270    -0.00008903    -0.00021205
C        -1.86360978     1.78569106    -0.02522913    -0.00019789     0.00014565     0.00013237
H        -2.38038333     2.63012047    -0.48269727     0.00059374     0.00026681    -0.00028218
N        -0.50389119     1.67014279     0.24450838     0.00046185     0.00003433    -0.00001618
H         0.01206778     2.50371887     0.38042035     0.00047008     0.00024439     0.00057101
H        -0.05129349     0.87012481     0.62069112    -0.00035112    -0.00012406     0.00030686
    14
  Step:    19            Position(A)                                  Velocity(au)
C        -6.01948017    -0.80356744    -0.03861991    -0.00000826    -0.00034905     0.00012891
C        -4.59793029    -0.72575597     0.10710156    -0.00035796    -0.00005072     0.00005670
H        -6.53060355     0.02591258    -0.49769977     0.00041242     0.00007781     0.00022570
H        -6.59279131    -1.75018736     0.09849495    -0.00162640     0.00155824     0.00038123
H        -4.08172954    -1.58791211     0.48683296     0.00106486     0.00004188    -0.00078404
C        -4.04755893     0.45303852    -0.11280367    -0.00011728     0.00001374    -0.00037454
C        -2.51681219     0.59349038     0.13294033     0.00011462     0.00006915     0.00009147
H        -4.47647628     1.38988156    -0.37422386    -0.00115609    -0.00042221    -0.00037107
H        -1.97819558    -0.20437614     0.60776585     0.00055435    -0.00023948    -0.00019495
C        -1.86557638     1.78708443    -0.02378092    -0.00015890     0.00010944     0.00013266
H        -2.37293455     2.63351028    -0.48538233     0.00076165     0.00035276    -0.00020899
N        -0.49900048     1.67071957     0.24425587     0.00043140     0.00007218    -0.00003000
H         0.01827223     2.50776604     0.38661307     0.00065071     0.00047309     0.00055900
H        -0.05523546     0.86738768     0.62450248    -0.00036746    -0.00037323     0.00039055
    14
  Step:    20            Position(A)                                  Velocity(au)
C        -6.01960003    -0.80754641    -0.03724905    -0.00001409    -0.00037491     0.00012114
C        -4.60222398    -0.72652729     0.10777411    -0.00042363    -0.00009064     0.00006627
H        -6.52649275     0.02714685    -0.49517592     0.00034250     0.00014497     0.00023731
H        -6.61003568    -1.73223435     0.10282318    -0.00153044     0.00169277     0.00041535
H        -4.06938174    -1.58782483     0.47822328     0.00117722    -0.00001526    -0.00079188
C        -4.04831999     0.45340635    -0.11687185    -0.00002366     0.00005231    -0.00036888
C        -2.51581310     0.59427874     0.13393422     0.00006798     0.00007427     0.00009031
H        -4.49042455     1.38577601    -0.37871482    -0.00138256    -0.00033169    -0.00044728
H        -1.97205388    -0.20777374     0.60570137     0.00055805    -0.00036867    -0.00018970
C        -1.86708597     1.78808516    -0.02232702    -0.00011473     0.00007413     0.00013331
H        -2.36372074     2.63783768    -0.48726940     0.00091582     0.00043705    -0.00013626
N        -0.49445343     1.67172192     0.24385218     0.00040040     0.00011175    -0.00004309