|===============================================================================
|
|  DFTB+ release 20.1
|
|  Copyright (C) 2006 - 2020  DFTB+ developers group
|
|===============================================================================
|
|  When publishing results obtained with DFTB+, please cite the following
|  reference:
|
|  * DFTB+, a software package for efficient approximate density functional
|    theory based atomistic simulations, J. Chem. Phys. 152, 124101 (2020).
|    [doi: 10.1063/1.5143190]
|
|  You should also cite additional publications crediting the parametrization
|  data you use. Please consult the documentation of the SK-files for the
|  references.
|
|===============================================================================

Reading input file 'dftb_in.hsd'
Parser version: 8

--------------------------------------------------------------------------------
Reading SK-files:
Done.


Processed input in HSD format written to 'dftb_pin.hsd'

Starting initialization...
--------------------------------------------------------------------------------
OpenMP threads:              1
Chosen random seed:          498941596
Mode:                        Static calculation
Self consistent charges:     Yes
SCC-tolerance:                 0.100000E-05
Max. scc iterations:                   1000
Shell resolved Hubbard:      No
Spin polarisation:           No
Nr. of up electrons:            16.000000
Nr. of down electrons:          16.000000
Periodic boundaries:         No
Electronic solver:           Relatively robust
Maximal SCC-cycles:                    1000
Initial charges:             Set automatically (system chrg:   0.100E+01)
Included shells:             C:  s, p
                             H:  s
                             N:  s, p
Spin coupling constants:     C   1(s)-1(s):  -0.455900E-01
                             C   1(s)-2(p):  -0.293000E-01
                             C   2(p)-1(s):  -0.293000E-01
                             C   2(p)-2(p):  -0.275500E-01
                             H   1(s)-1(s):  -0.792500E-01
                             N   1(s)-1(s):  -0.468700E-01
                             N   1(s)-2(p):  -0.317000E-01
                             N   2(p)-1(s):  -0.317000E-01
                             N   2(p)-2(p):  -0.307200E-01
Range separated hybrid:      Yes
  Screening parameter omega:   0.300000E+00
  Range separated algorithm:   MatrixBased
Extra options:
                             Mulliken analysis
                             Force calculation
Force type                   original
                             Eigenvector printing


REKS Calcuation:             Yes
SSR(2,2) Calcuation:         Yes
Energy Functional:           (PPS+OSS)/2
Number of Core Orbitals:                 15
Number of Active Orbitals:                2
Number of Basis:                         32
Number of States:                         2
State-Averaging Weight:          0.500000
                                 0.500000
State of Interest:                        1
Initial Guess:               Diagonalize H0 matrix
Newton-Raphson for FON opt:  Yes
NR max. Iterations:                      50
Level Shifting:              Yes
Shift Value:                     0.300000
W Scale Factor:              C  =    3.200000
                             H  =    3.200000
                             N  =    3.200000
Transition Dipole:           No
Gradient of Microstate:      No
CP-REKS Solver:              Preconditioned Conjugate-Gradient
CG max. Iterations:                     100
CG Tolerance:                  0.100000E-07
Memory for A and Hxc:        Direct Updating Without Saving
Non-Adiabatic Coupling:      Yes

--------------------------------------------------------------------------------

***  Geometry step: 0

  iSCC       reks energy        Diff energy         x_a       SCC error   
    1      -16.3971416193       0.0000000000     0.998770    1.19718971
    2      -16.4099736153      -0.0128319960     0.999735    0.04878018
    3      -16.4125109508      -0.0025373355     0.999863    0.01891871
    4      -16.4134862239      -0.0009752730     0.999910    0.01233025
    5      -16.4139582345      -0.0004720106     0.999932    0.00878057
    6      -16.4142120991      -0.0002538646     0.999945    0.00642576
    7      -16.4143563601      -0.0001442610     0.999953    0.00476239
    8      -16.4144411906      -0.0000848305     0.999958    0.00356152
    9      -16.4144923940      -0.0000512034     0.999961    0.00268403
   10      -16.4145240160      -0.0000316220     0.999964    0.00203690
   11      -16.4145439644      -0.0000199485     0.999965    0.00155589
   12      -16.4145568021      -0.0000128377     0.999966    0.00119579
   13      -16.4145652180      -0.0000084159     0.999967    0.00092444
   14      -16.4145708291      -0.0000056110     0.999968    0.00071869
   15      -16.4145746270      -0.0000037980     0.999968    0.00056175
   16      -16.4145772323      -0.0000026052     0.999969    0.00045499
   17      -16.4145790402      -0.0000018079     0.999969    0.00037156
   18      -16.4145803074      -0.0000012672     0.999969    0.00030451
   19      -16.4145812032      -0.0000008958     0.999969    0.00025039
   20      -16.4145818411      -0.0000006379     0.999970    0.00020651
   21      -16.4145822982      -0.0000004571     0.999970    0.00017078
   22      -16.4145826275      -0.0000003293     0.999970    0.00014160
   23      -16.4145828658      -0.0000002383     0.999970    0.00011766
   24      -16.4145830390      -0.0000001732     0.999970    0.00009798
   25      -16.4145831652      -0.0000001263     0.999970    0.00008174
   26      -16.4145832576      -0.0000000924     0.999970    0.00006850
   27      -16.4145833253      -0.0000000677     0.999970    0.00005915
   28      -16.4145833751      -0.0000000498     0.999970    0.00005104
   29      -16.4145834118      -0.0000000367     0.999970    0.00004402
   30      -16.4145834389      -0.0000000271     0.999970    0.00003796
   31      -16.4145834590      -0.0000000201     0.999970    0.00003273
   32      -16.4145834739      -0.0000000149     0.999970    0.00002822
   33      -16.4145834849      -0.0000000110     0.999970    0.00002433
   34      -16.4145834931      -0.0000000082     0.999970    0.00002099
   35      -16.4145834993      -0.0000000061     0.999970    0.00001811
   36      -16.4145835038      -0.0000000046     0.999970    0.00001563
   37      -16.4145835072      -0.0000000034     0.999970    0.00001350
   38      -16.4145835098      -0.0000000026     0.999970    0.00001166
   39      -16.4145835117      -0.0000000019     0.999970    0.00001008
   40      -16.4145835131      -0.0000000014     0.999970    0.00000872
   41      -16.4145835142      -0.0000000011     0.999970    0.00000754
   42      -16.4145835150      -0.0000000008     0.999970    0.00000653
   43      -16.4145835156      -0.0000000006     0.999970    0.00000565
   44      -16.4145835161      -0.0000000005     0.999970    0.00000490
   45      -16.4145835164      -0.0000000003     0.999970    0.00000424
   46      -16.4145835167      -0.0000000003     0.999970    0.00000368
   47      -16.4145835169      -0.0000000002     0.999970    0.00000319
   48      -16.4145835171      -0.0000000001     0.999970    0.00000280
   49      -16.4145835172      -0.0000000001     0.999970    0.00000246
   50      -16.4145835172      -0.0000000001     0.999970    0.00000217
   51      -16.4145835173      -0.0000000001     0.999970    0.00000191
   52      -16.4145835174      -0.0000000000     0.999970    0.00000168
   53      -16.4145835174      -0.0000000000     0.999970    0.00000148
   54      -16.4145835174      -0.0000000000     0.999970    0.00000131
   55      -16.4145835175      -0.0000000000     0.999970    0.00000115
   56      -16.4145835175      -0.0000000000     0.999970    0.00000101
   57      -16.4145835175      -0.0000000000     0.999970    0.00000089
  
--------------------------------------------------
 Final SA-REKS(2,2) energy:     -16.41458352
  
 State     Energy      FON(1)    FON(2)   Spin
  PPS  -16.47166920   1.999940  0.000060  0.00
  OSS  -16.35749784   1.000000  1.000000  0.00
 Trip  -16.39554779   1.000000  1.000000  1.00
--------------------------------------------------

 Lagrangian Wab:  -0.00437168 -0.00437143

--------------------------------------------------
 SSR: 2SI-2SA-REKS(2,2) Hamiltonian matrix
               PPS           OSS
   PPS   -16.47166920   -0.00614861
   OSS    -0.00614861  -16.35749784
--------------------------------------------------

----------------------------------------------------------------
 SSR: 2SI-2SA-REKS(2,2) states
                    E_n       C_{PPS}    C_{OSS}
 SSR state  1  -16.47199937  -0.998561  -0.053622
 SSR state  2  -16.35716766   0.053622  -0.998561
----------------------------------------------------------------

 unrelaxed SSR FONs for S0:  1.997065  0.002935

Total Energy:                      -16.4719993709 H         -448.2259 eV
Extrapolated to 0:                 -16.4719993709 H         -448.2259 eV

----------------------------------------------------------------------------------
 Solving CP-REKS equation for  1 state vector...
----------------------------------------------------------------------------------
  CG solver: Constructing Y initial guess
  CG solver: Iteration    1    eps =    0.000068413841
  CG solver: Iteration    2    eps =    0.000119878105
  CG solver: Iteration    3    eps =    0.000005414527
  CG solver: Iteration    4    eps =    0.000002718160
  CG solver: Iteration    5    eps =    0.000000481315
  CG solver: Iteration    6    eps =    0.000000128666
  CG solver: Iteration    7    eps =    0.000000030494
  CG solver: Iteration    8    eps =    0.000000003396
  Convergence reached in CG solver after    8 iterations
  CG solver: Calculating converged R, Z, Q2 matrix
----------------------------------------------------------------------------------

----------------------------------------------------------------------------------
 Solving CP-REKS equation for SI between  1 and  2 state vectors...
----------------------------------------------------------------------------------
  CG solver: Constructing Y initial guess
  CG solver: Iteration    1    eps =    0.039866703132
  CG solver: Iteration    2    eps =    0.002953222554
  CG solver: Iteration    3    eps =    0.001155954552
  CG solver: Iteration    4    eps =    0.000058062398
  CG solver: Iteration    5    eps =    0.000014746203
  CG solver: Iteration    6    eps =    0.000008879276
  CG solver: Iteration    7    eps =    0.000000656729
  CG solver: Iteration    8    eps =    0.000000050543
  CG solver: Iteration    9    eps =    0.000000012686
  CG solver: Iteration   10    eps =    0.000000000484
  Convergence reached in CG solver after   10 iterations
  CG solver: Calculating converged R, Z, Q2 matrix
----------------------------------------------------------------------------------

--------------------------------------------------
 Gradient Information
--------------------------------------------------
           1 st state (SSR)
    -0.00359130     0.03315886    -0.03360036
    -0.04550465    -0.06197406    -0.01451832
    -0.00153508     0.01830515     0.01744567
     0.02463345     0.03401651     0.02057620
    -0.00382536    -0.01651857     0.01695870
     0.02732164     0.00602502     0.00164931
     0.02068161     0.00624886    -0.06550255
     0.00112115    -0.01354446     0.03191573
    -0.05312193    -0.01300665     0.04174482
     0.02466277     0.03505798    -0.03355166
    -0.02664987    -0.02262215    -0.01944233
     0.02811034     0.00654854     0.06779262
     0.00844071    -0.00598018    -0.02470444
    -0.00074348    -0.00571485    -0.00676338

           2 st state (SSR)
     0.00130527     0.04201043    -0.03673472
    -0.03323036    -0.06912696    -0.01145029
     0.00385155     0.01893029     0.01600903
     0.01782833     0.03305733     0.02423664
     0.00063849    -0.01937316     0.01348269
     0.03269621     0.02189293    -0.01173202
    -0.01256977    -0.01017597    -0.03550885
    -0.00134112    -0.00381138     0.03111274
    -0.03624419    -0.02489536     0.03665079
     0.06499241     0.04348356    -0.02440694
    -0.02385063    -0.02361536    -0.02107883
    -0.02385973    -0.00025329     0.04943735
     0.01008250    -0.00884448    -0.02530138
    -0.00029895     0.00072140    -0.00471620
--------------------------------------------------
 Coupling Information
--------------------------------------------------
 between  1 and  2 states
--------------------------------------------------
 g vector - difference gradient
    -0.00239154    -0.00456314     0.00169965
    -0.00592683     0.00532275    -0.00104920
    -0.00245921    -0.00026563     0.00068398
     0.00319726     0.00047979    -0.00165194
    -0.00180008     0.00110122     0.00133832
    -0.00869678    -0.01159106     0.00679610
     0.02206760     0.01161475    -0.01556384
     0.00203734    -0.00588610     0.00007748
    -0.00858295     0.00682182     0.00210894
    -0.01924875    -0.00541702    -0.00291448
    -0.00136724     0.00067985     0.00072349
     0.02402039     0.00337868     0.00839167
    -0.00067165     0.00157066     0.00018474
    -0.00017757    -0.00324658    -0.00082491

 h vector - derivative coupling
    -0.00065834     0.00103754    -0.00114572
    -0.00228219    -0.01602118    -0.00458353
    -0.00231814    -0.00045257     0.00035738
     0.00208879     0.00002384    -0.00175352
    -0.00412917     0.00310399     0.00380408
     0.05564979     0.03352770    -0.00061957
    -0.04963168    -0.03114739     0.00445878
    -0.00741896     0.00920454     0.00302986
     0.00088455    -0.00782748     0.00420402
    -0.00958799     0.01095427    -0.01563784
    -0.00037580    -0.00167464     0.00092369
     0.01963573     0.00038910     0.00778997
    -0.00142965    -0.00120912     0.00107194
    -0.00042694     0.00009139    -0.00189957

 G vector - GDV
    -0.00244829    -0.00442579     0.00156718
    -0.00613715     0.00357645    -0.00153401
    -0.00269331    -0.00031257     0.00071832
     0.00340256     0.00047959    -0.00183022
    -0.00223192     0.00142729     0.00173800
    -0.00268728    -0.00793396     0.00669067
     0.01662569     0.00821241    -0.01499685
     0.00123114    -0.00486654     0.00040150
    -0.00843887     0.00594436     0.00254702
    -0.02016482    -0.00421279    -0.00457236
    -0.00139962     0.00049661     0.00081825
     0.02598503     0.00340092     0.00917763
    -0.00082089     0.00143215     0.00029847
    -0.00022227    -0.00321813    -0.00102359

 H vector - DCV - non-adiabatic coupling
    -0.00346979     0.01323883    -0.01150502
    -0.01423274    -0.14368033    -0.03870719
    -0.01777777    -0.00367075     0.00245647
     0.01510371    -0.00024105    -0.01364194
    -0.03407294     0.02584840     0.03168884
     0.48994396     0.30110303    -0.01170228
    -0.45030651    -0.28051559     0.05311993
    -0.06613568     0.08518510     0.02616128
     0.01566298    -0.07413464     0.03443303
    -0.06506500     0.09989730    -0.13267939
    -0.00197877    -0.01513359     0.00732291
     0.14761160     0.00021805     0.05962222
    -0.01175204    -0.01193373     0.00910891
    -0.00353101     0.00381896    -0.01567777
--------------------------------------------------


--------------------------------------------------------------------------------
DFTB+ running times                          cpu [s]             wall clock [s]
--------------------------------------------------------------------------------
SCC                                    +     0.06  ( 19.8%)      0.06  ( 20.0%)
      Dense to sparse                        0.01  (  3.8%)      0.01  (  2.0%)
      Range separated Hamiltonian            0.01  (  1.7%)      0.01  (  3.7%)
Post-SCC processing                    +     0.24  ( 79.8%)      0.24  ( 79.0%)
  Force calculation                          0.24  ( 79.7%)      0.24  ( 78.7%)
--------------------------------------------------------------------------------
Missing                                +     0.00  (  0.4%)      0.00  (  1.0%)
Total                                  =     0.30  (100.0%)      0.30  (100.0%)
--------------------------------------------------------------------------------
