 Fermi distribution function

Calculation with static geometry


********************************************************************************
 iSCC Total electronic   Diff electronic      SCC error    
   13   -0.52765249E+01   -0.62948846E-09    0.44842148E-08
********************************************************************************

 Total charge:     1.00000000

 Atomic gross charges (e)
 Atom           Charge
    1       0.31886004
    2      -0.20763814
    3       0.16857573
    4       0.25972640
    5       0.27264248
    6       0.18783349

Nr. of electrons (up):     12.00000000
Atom populations (up)
 Atom       Population
    1       3.68113996
    2       5.20763814
    3       0.83142427
    4       0.74027360
    5       0.72735752
    6       0.81216651

l-shell populations (up)
 Atom Sh.   l       Population
    1   1   0       1.39160784
    1   2   1       2.28953212
    2   1   0       1.51656521
    2   2   1       3.69107293
    3   1   0       0.83142427
    4   1   0       0.74027360
    5   1   0       0.72735752
    6   1   0       0.81216651

Orbital populations (up)
 Atom Sh.   l   m       Population  Label
    1   1   0   0       1.39160784  s
    1   2   1  -1       0.43754757  p_y
    1   2   1   0       0.86944510  p_z
    1   2   1   1       0.98253945  p_x
    2   1   0   0       1.51656521  s
    2   2   1  -1       1.34539757  p_y
    2   2   1   0       1.08078858  p_z
    2   2   1   1       1.26488678  p_x
    3   1   0   0       0.83142427  s
    4   1   0   0       0.74027360  s
    5   1   0   0       0.72735752  s
    6   1   0   0       0.81216651  s

Fermi level:                        -0.5135604269 H          -13.9747 eV
Band energy:                        -8.6864470743 H         -236.3703 eV
TS:                                  0.0000000000 H            0.0000 eV
Band free energy (E-TS):            -8.6864470743 H         -236.3703 eV
Extrapolated E(0K):                 -8.6864470743 H         -236.3703 eV
Input / Output electrons (q):     12.0000000000     12.0000000000

Energy H0:                          -5.4137071582 H         -147.3145 eV
Energy SCC:                          0.1371822435 H            3.7329 eV
Total Electronic energy:            -5.2765249147 H         -143.5815 eV
Repulsive energy:                    0.1416899482 H            3.8556 eV
Total energy:                       -5.1348349664 H         -139.7260 eV
Extrapolated to 0:                  -5.1348349664 H         -139.7260 eV
Total Mermin free energy:           -5.1348349664 H         -139.7260 eV
Force related energy:               -5.1348349664 H         -139.7260 eV

SCC converged

Excitation Energy:                   0.0889362058 H            2.4201 eV

Total Forces
    1      0.003055978711     -0.002718048618      0.059987277013
    2      0.007653138185      0.006418316276     -0.051822635353
    3      0.000577140565      0.012657107936     -0.004223249586
    4     -0.014145118339     -0.015389076911     -0.006131584365
    5      0.003866797071      0.012215316741      0.003898919735
    6     -0.001007936192     -0.013183615424     -0.001708727444

Maximal derivative component:        0.599873E-01 au


