     6
  Step:     0            Position(A)                                  Velocity(au)
C        -0.03804377     0.02654308     0.03343258    -0.00011828    -0.00001617    -0.00017244
N        -0.04238216    -0.06600361     1.28386690    -0.00015954     0.00003217     0.00017932
H         0.90453380    -0.03740148    -0.48818141     0.00025963     0.00000261    -0.00023405
H         0.79874727    -0.00566951     1.82050564     0.00166671    -0.00008242     0.00042690
H        -0.90197061    -0.03015932     1.88701685     0.00064448    -0.00028129    -0.00117568
H        -0.97195890     0.00437307    -0.56675033     0.00105563     0.00010674     0.00054567
     6
  Step:     1            Position(A)                                  Velocity(au)
C        -0.03942394     0.02647648     0.03071315    -0.00012913     0.00000330    -0.00031724
N        -0.04428990    -0.06575399     1.28662568    -0.00017887     0.00001435     0.00032031
H         0.90868750    -0.03759758    -0.49217176     0.00048401    -0.00003690    -0.00048303
H         0.81862816    -0.00625752     1.82644890     0.00187807    -0.00003223     0.00060412
H        -0.89437991    -0.03316588     1.87374095     0.00068797    -0.00026638    -0.00120357
H        -0.96062749     0.00548860    -0.56136021     0.00097436     0.00009680     0.00041148
     6
  Step:     2            Position(A)                                  Velocity(au)
C        -0.04086871     0.02661526     0.02649228    -0.00012943     0.00002111    -0.00044409
N        -0.04629538    -0.06568969     1.29087440    -0.00017696    -0.00000158     0.00044816
H         0.91512243    -0.03820880    -0.49874861     0.00066843    -0.00007279    -0.00070198
H         0.83983364    -0.00637452     1.83372197     0.00191246     0.00000447     0.00067442
H        -0.88691996    -0.03598697     1.86068641     0.00061097    -0.00024737    -0.00112924
H        -0.95064297     0.00649070    -0.55774831     0.00080955     0.00008609     0.00022069
     6
  Step:     3            Position(A)                                  Velocity(au)
C        -0.04225553     0.02693829     0.02099790    -0.00011859     0.00003680    -0.00054827
N        -0.04816120    -0.06578852     1.29643003    -0.00015406    -0.00001541     0.00055658
H         0.92331070    -0.03918996    -0.50752887     0.00079929    -0.00010423    -0.00088295
H         0.86046678    -0.00615977     1.84120321     0.00178555     0.00002958     0.00065189
H        -0.88101383    -0.03857768     1.84903670     0.00040236    -0.00022452    -0.00094750
H        -0.94291702     0.00737189    -0.55653212     0.00056685     0.00007483    -0.00002273
     6
  Step:     4            Position(A)                                  Velocity(au)
C        -0.04346317     0.02742034     0.01449780    -0.00009753     0.00005008    -0.00062735
N        -0.04966575    -0.06602685     1.30305067    -0.00011276    -0.00002707     0.00064158
H         0.93260841    -0.04048912    -0.51806486     0.00086919    -0.00013084    -0.00102207
H         0.87889586    -0.00572743     1.84798335     0.00152546     0.00004551     0.00055781
H        -0.87811752    -0.04089867     1.83995810     0.00007122    -0.00019863    -0.00066887
H        -0.93824215     0.00812766    -0.55824568     0.00026321     0.00006338    -0.00030700
     6
  Step:     5            Position(A)                                  Velocity(au)
C        -0.04438910     0.02803391     0.00727348    -0.00006860     0.00006082    -0.00068119
N        -0.05062807    -0.06638074     1.31046571    -0.00005779    -0.00003656     0.00070200
H         0.94232581    -0.04205228    -0.52988862     0.00087654    -0.00015252    -0.00111902
H         0.89383923    -0.00516414     1.85340639     0.00116501     0.00005474     0.00041506
H        -0.87945573    -0.04292303     1.83440396    -0.00034793    -0.00017113    -0.00032165
H        -0.93715875     0.00875835    -0.56324832    -0.00007320     0.00005224    -0.00061269
     6
  Step:     6            Position(A)                                  Velocity(au)
C        -0.04496390     0.02875093    -0.00040449    -0.00003518     0.00006903    -0.00071161
N        -0.05092992    -0.06682672     1.31840835     0.00000445    -0.00004397     0.00073933
H         0.95178448    -0.04382584    -0.54254549     0.00082441    -0.00016959    -0.00117609
H         0.90438262    -0.00452986     1.85706353     0.00073741     0.00005968     0.00024523
H        -0.88572914    -0.04464245     1.83292142    -0.00079762    -0.00014376     0.00005171
H        -0.93984356     0.00927054    -0.57164953    -0.00040679     0.00004212    -0.00091534
     6
  Step:     7            Position(A)                                  Velocity(au)
C        -0.04515880     0.02954406    -0.00829445    -0.00000098     0.00007481    -0.00072167
N        -0.05053076    -0.06734262     1.32664006     0.00006675    -0.00004944     0.00075665
H         0.96036145    -0.04576246    -0.55561794     0.00071918    -0.00018267    -0.00119731
H         0.90997143    -0.00385859     1.85877126     0.00027505     0.00006267     0.00006792
H        -0.89690521    -0.04606816     1.83553530    -0.00120914    -0.00011823     0.00040393
H        -0.94605799     0.00967977    -0.58327322    -0.00070096     0.00003381    -0.00118974
     6
  Step:     8            Position(A)                                  Velocity(au)
C        -0.04498539     0.03038764    -0.01619247     0.00003575     0.00008156    -0.00082495
N        -0.04946969    -0.06790836     1.33496143     0.00012242    -0.00005806     0.00084324
H         0.96751800    -0.04782211    -0.56873903     0.00048038    -0.00026056    -0.00110720
H         0.91039989    -0.00315886     1.85854945    -0.00024095     0.00015524    -0.00012187
H        -0.91218132    -0.04722906     1.84175810    -0.00148402    -0.00019059     0.00065885
H        -0.95517829     0.01001023    -0.59767747    -0.00088269     0.00013087    -0.00131779
     6
  Step:     9            Position(A)                                  Velocity(au)
C        -0.04437665     0.03132832    -0.02634171     0.00007276     0.00008941    -0.00102512
N        -0.04785252    -0.06861278     1.34508764     0.00016575    -0.00006999     0.00100264
H         0.97087065    -0.05146274    -0.57983998     0.00012404    -0.00037113    -0.00091303
H         0.90470016    -0.00046245     1.85610506    -0.00077356     0.00030490    -0.00030731
H        -0.92937094    -0.05023766     1.84994890    -0.00158058    -0.00032836     0.00079291
H        -0.96536851     0.01254281    -0.61210230    -0.00094024     0.00030190    -0.00129039
     6
  Step:    10            Position(A)                                  Velocity(au)
C        -0.04339365     0.03234356    -0.03861883     0.00010367     0.00009480    -0.00120663
N        -0.04584362    -0.06943962     1.35689615     0.00019246    -0.00008028     0.00114394
H         0.97023159    -0.05594135    -0.58871333    -0.00023637    -0.00043359    -0.00071017
H         0.89347681     0.00351136     1.85182641    -0.00122214     0.00041142    -0.00044030
H        -0.94675945    -0.05441247     1.85910457    -0.00152751    -0.00042307     0.00084417
H        -0.97574790     0.01661488    -0.62590729    -0.00092384     0.00043123    -0.00121209
     6
  Step:    11            Position(A)                                  Velocity(au)
C        -0.04210860     0.03340228    -0.05273901     0.00012755     0.00009739    -0.00136037
N        -0.04364214    -0.07036913     1.37011346     0.00019973    -0.00008900     0.00125813
H         0.96569956    -0.06094842    -0.59537639    -0.00057583    -0.00047444    -0.00051688
H         0.87796345     0.00853819     1.84647277    -0.00152984     0.00050657    -0.00048973
H        -0.96278808    -0.05949305     1.86841667    -0.00134315    -0.00049926     0.00082994
H        -0.98557932     0.02197676    -0.63861913    -0.00084660     0.00054345    -0.00109664
     6
  Step:    12            Position(A)                                  Velocity(au)
C        -0.04060319     0.03447407    -0.06837943     0.00014352     0.00009739    -0.00148451
N        -0.04147423    -0.07138666     1.38442014     0.00018551    -0.00009679     0.00134254
H         0.95763430    -0.06632074    -0.60002112    -0.00086999    -0.00050438    -0.00034877
H         0.86000867     0.01459346     1.84111268    -0.00164289     0.00060637    -0.00042992
H        -0.97614338    -0.06533466     1.87726108    -0.00105326    -0.00056423     0.00076783
H        -0.99426889     0.02850397    -0.64989838    -0.00072198     0.00064677    -0.00095608
     6
  Step:    13            Position(A)                                  Velocity(au)
C        -0.03896891     0.03553297    -0.08521555     0.00015060     0.00009534    -0.00157966
N        -0.03958369    -0.07248668     1.39948403     0.00014910    -0.00010457     0.00139707
H         0.94666679    -0.07198260    -0.60300641    -0.00109325    -0.00053065    -0.00022103
H         0.84202214     0.02180367     1.83706755    -0.00152049     0.00072354    -0.00024408
H        -0.98583019    -0.07183672     1.88521434    -0.00068883    -0.00062075     0.00067617
H        -1.00137411     0.03612603    -0.65953521    -0.00056398     0.00074486    -0.00080198
     6
  Step:    14            Position(A)                                  Velocity(au)
C        -0.03730856     0.03655989    -0.10293747     0.00014777     0.00009190    -0.00164741
N        -0.03821232    -0.07367429     1.41498363     0.00009231    -0.00011319     0.00142369
H         0.93371728    -0.07792965    -0.60485659    -0.00121922    -0.00055958    -0.00014821
H         0.82674495     0.03042228     1.83577302    -0.00115368     0.00086766     0.00006706
H        -0.99121290    -0.07891475     1.89205365    -0.00028391    -0.00066998     0.00057294
H        -1.00660713     0.04479926    -0.66744319    -0.00038685     0.00083982    -0.00064533
     6
  Step:    15            Position(A)                                  Velocity(au)
C        -0.03573618     0.03754341    -0.12125580     0.00013415     0.00008777    -0.00168965
N        -0.03756418    -0.07496300     1.43062995     0.00002073    -0.00012315     0.00142626
H         0.91999401    -0.08422454    -0.60624885    -0.00122353    -0.00059725    -0.00014274
H         0.81678322     0.04078547     1.83853471    -0.00058341     0.00104236     0.00047802
H        -0.99204128    -0.08649390     1.89774860     0.00012526    -0.00071267     0.00047529
H        -1.00983722     0.05449875    -0.67365310    -0.00020495     0.00093304    -0.00049643
     6
  Step:    16            Position(A)                                  Velocity(au)
C        -0.03437382     0.03848012    -0.13990188     0.00010946     0.00008364    -0.00170821
N        -0.03775877    -0.07636852     1.44618576    -0.00005602    -0.00013424     0.00140998
H         0.90695030    -0.09099562    -0.60797938    -0.00108922    -0.00064918    -0.00021225
H         0.81398174     0.05322590     1.84623056     0.00009554     0.00124193     0.00093881
H        -0.98847267    -0.09450587     1.90245153     0.00050042    -0.00074958     0.00039962
H        -1.01109078     0.06521134    -0.67830360    -0.00003261     0.00102556    -0.00036467
     6
  Step:    17            Position(A)                                  Velocity(au)
C        -0.03334164     0.03937319    -0.15862613     0.00007466     0.00007995    -0.00170478
N        -0.03878966    -0.07789965     1.46147587    -0.00012579    -0.00014541     0.00138028
H         0.89616532    -0.09842651    -0.61089231    -0.00081447    -0.00071916    -0.00035603
H         0.81887336     0.06795504     1.85907296     0.00075482     0.00145064     0.00138614
H        -0.98109358    -0.10289240     1.90649098     0.00080200    -0.00078191     0.00036168
H        -1.01055054     0.07693478    -0.68163098     0.00011607     0.00111842    -0.00025840
     6
  Step:    18            Position(A)                                  Velocity(au)
C        -0.03274058     0.04022925    -0.17719731     0.00003253     0.00007682    -0.00168131
N        -0.04051069    -0.07954971     1.47638200    -0.00017690    -0.00015512     0.00134166
H         0.88913216    -0.10672867    -0.61576824    -0.00041969    -0.00080766    -0.00056227
H         0.83049491     0.08496154     1.87655503     0.00127080     0.00164660     0.00176145
H        -0.97092739    -0.11161167     1.91036389     0.00099181    -0.00081150     0.00037582
H        -1.00855144     0.08967885    -0.68395666     0.00022762     0.00121284    -0.00018470
     6
  Step:    19            Position(A)                                  Velocity(au)
C        -0.03262993     0.04105377    -0.19540808    -0.00001221     0.00007390    -0.00164042
N        -0.04265959    -0.08129329     1.49082734    -0.00020107    -0.00016180     0.00129711
H         0.88698374    -0.11609551    -0.62319301     0.00005048    -0.00091042    -0.00080811
H         0.84667455     0.10397765     1.89760814     0.00156030     0.00180864     0.00202625
H        -0.95939582    -0.12064545     1.91471271     0.00103868    -0.00084072     0.00045298
H        -1.00557101     0.10346794    -0.68567158     0.00029013     0.00131024    -0.00014889
     6
  Step:    20            Position(A)                                  Velocity(au)
C        -0.03300764     0.04184605    -0.21308467    -0.00005361     0.00007047    -0.00158541
N        -0.04490946    -0.08308932     1.50475867    -0.00019514    -0.00016433     0.00124815
H         0.89023647    -0.12664587    -0.63344710     0.00053355    -0.00101850    -0.00106362
H         0.86462941     0.12452902     1.92088316     0.00159519     0.00192242     0.00216724
H        -0.94820429    -0.13000401     1.92027365     0.00092681    -0.00087206     0.00059733
H        -1.00220438     0.11834289    -0.68721385     0.00029503     0.00141205    -0.00015386
     6
  Step:    21            Position(A)                                  Velocity(au)
C        -0.03380270     0.04259537    -0.23009196    -0.00008581     0.00006552    -0.00151977
N        -0.04692875    -0.08488833     1.51813291    -0.00016109    -0.00016234     0.00119551
H         0.89865614    -0.13837706    -0.64646174     0.00096314    -0.00112009    -0.00129864
H         0.88157237     0.14603417     1.94502062     0.00139418     0.00198271     0.00219169
H        -0.93912003    -0.13972344     1.92778044     0.00066454    -0.00090721     0.00080264
H        -0.99911663     0.13435934    -0.68903766     0.00023917     0.00151974    -0.00019934
     6
  Step:    22            Position(A)                                  Velocity(au)
C        -0.03488490     0.04327947    -0.24633261    -0.00010456     0.00005813    -0.00144670
N        -0.04843355    -0.08664077     1.53091279    -0.00010494    -0.00015613     0.00113994
H         0.91130705    -0.15115002    -0.66185727     0.00128469    -0.00120353    -0.00148951
H         0.89512980     0.16790462     1.96883053     0.00100327     0.00199215     0.00211846
H        -0.93366629    -0.14985099     1.93783304     0.00028922    -0.00094595     0.00105015
H        -0.99697198     0.15159015    -0.69157474     0.00012693     0.00163428    -0.00028122
     6
  Step:    23            Position(A)                                  Velocity(au)
C        -0.03609005     0.04386711    -0.26174131    -0.00010819     0.00004771    -0.00136878
N        -0.04922442    -0.08830397     1.54307129    -0.00003522    -0.00014657     0.00108266
H         0.92676126    -0.16470663    -0.67904764     0.00146606    -0.00125999    -0.00162307
H         0.90352072     0.18961621     1.99136609     0.00047730     0.00195835     0.00197006
H        -0.93279283    -0.16041793     1.95075440    -0.00013622    -0.00098531     0.00130989
H        -0.99633979     0.17011240    -0.69518997    -0.00002843     0.00175529    -0.00039147
     6
  Step:    24            Position(A)                                  Velocity(au)
C        -0.03725187     0.04432315    -0.27627734    -0.00009780     0.00003417    -0.00128797
N        -0.04920412    -0.08984729     1.55459800     0.00003879    -0.00013489     0.00102530
H         0.94337993    -0.17871468    -0.69736500     0.00149928    -0.00128499    -0.00169646
H         0.90557176     0.21074718     2.01192928    -0.00013090     0.00189142     0.00176814
H        -0.93664626    -0.17140648     1.96648930    -0.00053669    -0.00101962     0.00154651
H        -0.99759394     0.18999045    -0.70013883    -0.00020535     0.00188058    -0.00051869
     6
  Step:    25            Position(A)                                  Velocity(au)
C        -0.03822953     0.04461464    -0.28991804    -0.00007646     0.00001796    -0.00120568
N        -0.04837586    -0.09125506     1.56550163     0.00010871    -0.00012252     0.00096941
H         0.95956078    -0.19281829    -0.71616086     0.00139515    -0.00127826    -0.00171425
H         0.90065693     0.23099473     2.03004747    -0.00077441     0.00180275     0.00153227
H        -0.94453405    -0.18272409     1.98458726    -0.00084341    -0.00104177     0.00172733
H        -1.00083230     0.21125366    -0.70653730    -0.00037692     0.00200593    -0.00064972
     6
  Step:    26            Position(A)                                  Velocity(au)
C        -0.03892450     0.04471605    -0.30265385    -0.00004827    -0.00000009    -0.00112293
N        -0.04682593    -0.09252775     1.57580562     0.00016810    -0.00011093     0.00091588
H         0.97390142    -0.20667908    -0.73486753     0.00117545    -0.00124258    -0.00168499
H         0.88862995     0.25018572     2.04545065    -0.00141137     0.00170492     0.00128060
H        -0.95509753    -0.19419720     2.00427801    -0.00100946    -0.00104510     0.00182940
H        -1.00583983     0.23387412    -0.71435261    -0.00051542     0.00212540    -0.00077158
     6
  Step:    27            Position(A)                                  Velocity(au)
C        -0.03928553     0.04461268    -0.31448428    -0.00001735    -0.00001893    -0.00104039
N        -0.04469837    -0.09368193     1.58553825     0.00021278    -0.00010158     0.00086462
H         0.98527589    -0.22000210    -0.75302319     0.00086611    -0.00118249    -0.00161841
H         0.86978044     0.26829310     2.05806314    -0.00200252     0.00161263     0.00103136
H        -0.96661789    -0.20558758     2.02460887    -0.00101642    -0.00102509     0.00184268
H        -1.01210802     0.25775087    -0.72341720    -0.00059722     0.00223212    -0.00087348
     6
  Step:    28            Position(A)                                  Velocity(au)
C        -0.03930415     0.04430192    -0.32541433     0.00001283    -0.00003748    -0.00095839
N        -0.04217105    -0.09475002     1.59472087     0.00024045    -0.00009594     0.00081451
H         0.99284931    -0.23254840    -0.77027336     0.00049292    -0.00110329    -0.00152388
H         0.84482106     0.28546512     2.06801373    -0.00250905     0.00154381     0.00080427
H        -0.97733359    -0.21662295     2.04459018    -0.00087162    -0.00098017     0.00176909
H        -1.01890525     0.28270607    -0.73346167    -0.00060657     0.00231949    -0.00094805
     6
  Step:    29            Position(A)                                  Velocity(au)
C        -0.03900491     0.04379268    -0.33545097     0.00003972    -0.00005477    -0.00087698
N        -0.03943798    -0.09578076     1.60335729     0.00025018    -0.00009555     0.00076363
H         0.99605951    -0.24413862    -0.78636108     0.00007975    -0.00101047    -0.00140989
H         0.81489023     0.30206680     2.07565806    -0.00289261     0.00152031     0.00062096
H        -0.98568624    -0.22703068     2.06331106    -0.00060013    -0.00091158     0.00161899
H        -1.02537791     0.30849424    -0.74415756    -0.00053688     0.00238217    -0.00099171
     6
  Step:    30            Position(A)                                  Velocity(au)
C        -0.03843524     0.04310382    -0.34459992     0.00006163    -0.00006996    -0.00079591
N        -0.03669794    -0.09684042     1.61142678     0.00024198    -0.00010203     0.00070965
H         0.99459399    -0.25465437    -0.80111741    -0.00035162    -0.00090964    -0.00128411
H         0.78153973     0.31872487     2.08159835    -0.00311909     0.00156708     0.00050338
H        -0.99046265    -0.23656541     2.08000876    -0.00023629    -0.00082270     0.00140739
H        -1.03065044     0.33482063    -0.75515712    -0.00039003     0.00241674    -0.00100419
     6
  Step:    31            Position(A)                                  Velocity(au)
C        -0.03765671     0.04226213    -0.35286297     0.00007752    -0.00008243    -0.00071473
N        -0.03414418    -0.09801280     1.61888224     0.00021709    -0.00011678     0.00065038
H         0.98836712    -0.26403864    -0.81445351    -0.00078105    -0.00080650    -0.00115377
H         0.74665421     0.33634960     2.08667040    -0.00316710     0.00170813     0.00046914
H        -0.99085551    -0.24502878     2.09410030     0.00018210    -0.00071846     0.00115116
H        -1.03391066     0.36136508    -0.76612622    -0.00017440     0.00242191    -0.00098771
     6
  Step:    32            Position(A)                                  Velocity(au)
C        -0.03673944     0.04130046    -0.36023598     0.00008673    -0.00009169    -0.00063283
N        -0.03194873    -0.09939518     1.62565498     0.00017854    -0.00014051     0.00058439
H         0.97750713    -0.27229821    -0.82635825    -0.00118919    -0.00070713    -0.00102607
H         0.71225336     0.35609343     2.09186177    -0.00303932     0.00195884     0.00052410
H        -0.98647882    -0.25228305     2.10519262     0.00061640    -0.00060492     0.00086787
H        -1.03446577     0.38780461    -0.77676517     0.00009766     0.00239835    -0.00094594
     6
  Step:    33            Position(A)                                  Velocity(au)
C        -0.03575940     0.04025626    -0.36670738     0.00008875    -0.00009736    -0.00054948
N        -0.03023838    -0.10108669     1.63166678     0.00013178    -0.00017247     0.00051160
H         0.96235140    -0.27950844    -0.83690080    -0.00155677    -0.00061809    -0.00090870
H         0.68016334     0.37920296     2.09813613    -0.00277120     0.00231570     0.00065466
H        -0.97737064    -0.25826250     2.11308671     0.00102747    -0.00048916     0.00057566
H        -1.03177423     0.41383350    -0.78682057     0.00041171     0.00234837    -0.00088337
     6
  Step:    34            Position(A)                                  Velocity(au)
C        -0.03479791     0.03917058    -0.37225692     0.00008310    -0.00009914    -0.00046384
N        -0.02906582    -0.10316826     1.63684714     0.00008462    -0.00020992     0.00043345
H         0.94344977    -0.28582014    -0.84623787    -0.00186437    -0.00054669    -0.00081008
H         0.65162796     0.40675371     2.10618373    -0.00242981     0.00274900     0.00082494
H        -0.96400085    -0.26298427     2.11778619     0.00137532    -0.00037934     0.00029362
H        -1.02545882     0.43917961    -0.79609069     0.00075269     0.00227563    -0.00080472
     6
  Step:    35            Position(A)                                  Velocity(au)
C        -0.03394148     0.03808729    -0.37685476     0.00006931    -0.00009682    -0.00037499
N        -0.02838709    -0.10567917     1.64114924     0.00004607    -0.00024826     0.00035243
H         0.92156480    -0.29146837    -0.85462293    -0.00209281    -0.00050092    -0.00073939
H         0.62700654     0.43934253     2.11618316    -0.00209837     0.00320415     0.00098298
H        -0.94728297    -0.26656124     2.11951027     0.00161936    -0.00028449     0.00004202
H        -1.01530768     0.46361734    -0.80442546     0.00110560     0.00218493    -0.00071471
     6
  Step:    36            Position(A)                                  Velocity(au)
C        -0.03328154     0.03705235    -0.38046059     0.00004709    -0.00009027    -0.00028199
N        -0.02805789    -0.10859937     1.64455715     0.00002438    -0.00028193     0.00027111
H         0.89766554    -0.29677862    -0.86241347    -0.00222485    -0.00048892    -0.00070590
H         0.60572221     0.47685068     2.12768835    -0.00185192     0.00361408     0.00107534
H        -0.92857431    -0.26920809     2.11870537     0.00172105    -0.00021372    -0.00015878
H        -1.00127164     0.48697905    -0.81172635     0.00145575     0.00208205    -0.00061802
     6
  Step:    37            Position(A)                                  Velocity(au)
C        -0.03291134     0.03611247    -0.38302382     0.00001655    -0.00007952    -0.00018397
N        -0.02785365    -0.11184695     1.64708037     0.00002514    -0.00030594     0.00019124
H         0.87289204    -0.30216440    -0.87006593    -0.00224826    -0.00051797    -0.00071751
H         0.58649236     0.51840749     2.13970832    -0.00173698     0.00391811     0.00106276
H        -0.90963174    -0.27123685     2.11603669     0.00164990    -0.00017483    -0.00029124
H        -0.98346044     0.50916616    -0.81794577     0.00178874     0.00197384    -0.00051932
     6
  Step:    38            Position(A)                                  Velocity(au)
C        -0.03291950     0.03531259    -0.38448539    -0.00002136    -0.00006495    -0.00008038
N        -0.02750786    -0.11529248     1.64874084     0.00005010    -0.00031708     0.00011344
H         0.84848065    -0.30811029    -0.87811037    -0.00216010    -0.00059277    -0.00077830
H         0.56772237     0.56256677     2.15093821    -0.00176489     0.00407714     0.00092891
H        -0.89247952    -0.27303283     2.11233384     0.00139287    -0.00017232    -0.00034589
H        -0.96213945     0.53016064    -0.82308752     0.00209053     0.00186823    -0.00042337
     6
  Step:    39            Position(A)                                  Velocity(au)
C        -0.03337871     0.03469156    -0.38478220    -0.00006456    -0.00004740     0.00002883
N        -0.02675771    -0.11878376     1.64956200     0.00009694    -0.00031441     0.00003775
H         0.82563562    -0.31513241    -0.88709280    -0.00197105    -0.00071313    -0.00088548
H         0.54788198     0.60760272     2.16002995    -0.00191856     0.00407838     0.00067926
H        -0.87916007    -0.27500661     2.10846979     0.00096413    -0.00020538    -0.00032689
H        -0.93772607     0.55003719    -0.82720788     0.00234758     0.00177418    -0.00033507
     6
  Step:    40            Position(A)                                  Velocity(au)
C        -0.03433182     0.03427565    -0.38385467    -0.00010968    -0.00002834     0.00014292
N        -0.02538705    -0.12217091     1.64956666     0.00015991    -0.00029902    -0.00003559
H         0.80536005    -0.32371149    -0.89748186    -0.00170716    -0.00087237    -0.00102707
H         0.52575016     0.65178924     2.16579823    -0.00216573     0.00393075     0.00033355
H        -0.87138735    -0.27752586     2.10518243     0.00041034    -0.00026695    -0.00025550
H        -0.91078155     0.56897419    -0.83041779     0.00254744     0.00170156    -0.00025941
     6
  Step:    41            Position(A)                                  Velocity(au)
C        -0.03577828     0.03407155    -0.38165563    -0.00015247    -0.00000981     0.00026037
N        -0.02325947    -0.12532535     1.64878329     0.00023093    -0.00027329    -0.00010573
H         0.78828818    -0.33421722    -0.90956194    -0.00140729    -0.00105723    -0.00118200
H         0.50050249     0.69359536     2.16732696    -0.00247089     0.00365625    -0.00008262
H        -0.87018308    -0.28084658     2.10288026    -0.00019411    -0.00034477    -0.00016768
H        -0.88199604     0.58726209    -0.83288299     0.00267992     0.00166043    -0.00020108
     6
  Step:    42            Position(A)                                  Velocity(au)
C        -0.03766733     0.03406098    -0.37815858    -0.00018847     0.00000585     0.00037909
N        -0.02033491    -0.12814964     1.64725358     0.00030137    -0.00024014    -0.00017137
H         0.77457286    -0.34684052    -0.92334028    -0.00111590    -0.00124986    -0.00132304
H         0.47169471     0.73177663     2.16399071    -0.00280225     0.00328194    -0.00054387
H        -0.87563389    -0.28506829     2.10151418    -0.00076299    -0.00042446    -0.00010529
H        -0.85215307     0.60529923    -0.83481670     0.00273900     0.00165974    -0.00016364
     6
  Step:    43            Position(A)                                  Velocity(au)
C        -0.03990147     0.03419957    -0.37336238    -0.00021412     0.00001649     0.00049674
N        -0.01666640    -0.13057889     1.64503420     0.00036365    -0.00020235    -0.00023144
H         0.76387580    -0.36156021    -0.93850597    -0.00087339    -0.00143147    -0.00142244
H         0.43919790     0.76539416     2.15542871    -0.00313430     0.00283503    -0.00102794
H        -0.88687500    -0.29013256     2.10057692    -0.00121918    -0.00049350    -0.00010430
H        -0.82207521     0.62357211    -0.83646301     0.00272483     0.00170543    -0.00014839
     6
  Step:    44            Position(A)                                  Velocity(au)
C        -0.04235157     0.03442176    -0.36729137    -0.00022749     0.00002064     0.00061117
N        -0.01237929    -0.13257653     1.64219031     0.00041253    -0.00016224    -0.00028572
H         0.75546583    -0.37815663    -0.95445883    -0.00070828    -0.00158638    -0.00145770
H         0.40312590     0.79379843     2.14150251    -0.00344758     0.00234112    -0.00151604
H        -0.90230586    -0.29586460     2.09923235    -0.00151147    -0.00054419    -0.00018584
H        -0.79254230     0.64260878    -0.83806292     0.00264548     0.00179804    -0.00015281
     6