|===============================================================================
|
|  DFTB+ release 20.1
|
|  Copyright (C) 2006 - 2020  DFTB+ developers group
|
|===============================================================================
|
|  When publishing results obtained with DFTB+, please cite the following
|  reference:
|
|  * DFTB+, a software package for efficient approximate density functional
|    theory based atomistic simulations, J. Chem. Phys. 152, 124101 (2020).
|    [doi: 10.1063/1.5143190]
|
|  You should also cite additional publications crediting the parametrization
|  data you use. Please consult the documentation of the SK-files for the
|  references.
|
|===============================================================================

Reading input file 'dftb_in.hsd'
Parser version: 8

--------------------------------------------------------------------------------
Reading SK-files:
Done.


Processed input in HSD format written to 'dftb_pin.hsd'

Starting initialization...
--------------------------------------------------------------------------------
OpenMP threads:              1
Chosen random seed:          511511765
Mode:                        Static calculation
Self consistent charges:     Yes
SCC-tolerance:                 0.100000E-05
Max. scc iterations:                   1000
Shell resolved Hubbard:      No
Spin polarisation:           No
Nr. of up electrons:             6.000000
Nr. of down electrons:           6.000000
Periodic boundaries:         No
Electronic solver:           Relatively robust
Maximal SCC-cycles:                    1000
Initial charges:             Set automatically (system chrg:   0.100E+01)
Included shells:             C:  s, p
                             N:  s, p
                             H:  s
Spin coupling constants:     C   1(s)-1(s):  -0.455900E-01
                             C   1(s)-2(p):  -0.293000E-01
                             C   2(p)-1(s):  -0.293000E-01
                             C   2(p)-2(p):  -0.275500E-01
                             N   1(s)-1(s):  -0.468700E-01
                             N   1(s)-2(p):  -0.317000E-01
                             N   2(p)-1(s):  -0.317000E-01
                             N   2(p)-2(p):  -0.307200E-01
                             H   1(s)-1(s):  -0.792500E-01
Range separated hybrid:      Yes
  Screening parameter omega:   0.300000E+00
  Range separated algorithm:   MatrixBased
Extra options:
                             Mulliken analysis
                             Force calculation
Force type                   original
                             Eigenvector printing


REKS Calcuation:             Yes
SSR(2,2) Calcuation:         Yes
Energy Functional:           (PPS+OSS)/2
Number of Core Orbitals:                  5
Number of Active Orbitals:                2
Number of Basis:                         12
Number of States:                         2
State-Averaging Weight:          0.500000
                                 0.500000
State of Interest:                        1
Initial Guess:               Diagonalize H0 matrix
Newton-Raphson for FON opt:  Yes
NR max. Iterations:                      50
Level Shifting:              Yes
Shift Value:                     0.300000
W Scale Factor:              C  =    3.000000
                             N  =    3.000000
                             H  =    3.000000
Transition Dipole:           No
Gradient of Microstate:      No
CP-REKS Solver:              Preconditioned Conjugate-Gradient
CG max. Iterations:                     100
CG Tolerance:                  0.100000E-07
Memory for A and Hxc:        Direct Updating Without Saving
Non-Adiabatic Coupling:      Yes

--------------------------------------------------------------------------------

***  Geometry step: 0

  iSCC       reks energy        Diff energy         x_a       SCC error   
    1       -6.2620161687       0.0000000000     0.999213    1.19017310
    2       -6.2749703101      -0.0129541414     0.999680    0.10181495
    3       -6.2788043974      -0.0038340873     0.999823    0.04539079
    4       -6.2806021430      -0.0017977456     0.999882    0.02263407
    5       -6.2816024141      -0.0010002711     0.999911    0.01187371
    6       -6.2822196746      -0.0006172605     0.999927    0.00644954
    7       -6.2826217725      -0.0004020979     0.999936    0.00577525
    8       -6.2828896167      -0.0002678442     0.999942    0.00498983
    9       -6.2830692217      -0.0001796050     0.999945    0.00421602
   10       -6.2831897006      -0.0001204789     0.999948    0.00350896
   11       -6.2832703967      -0.0000806961     0.999949    0.00291823
   12       -6.2833243644      -0.0000539676     0.999950    0.00241194
   13       -6.2833604232      -0.0000360588     0.999951    0.00202289
   14       -6.2833845103      -0.0000240871     0.999952    0.00173570
   15       -6.2834006054      -0.0000160951     0.999952    0.00147927
   16       -6.2834113678      -0.0000107624     0.999952    0.00125378
   17       -6.2834185709      -0.0000072031     0.999952    0.00105779
   18       -6.2834233966      -0.0000048257     0.999953    0.00088902
   19       -6.2834266328      -0.0000032362     0.999953    0.00074475
   20       -6.2834288050      -0.0000021722     0.999953    0.00062217
   21       -6.2834302641      -0.0000014591     0.999953    0.00051853
   22       -6.2834312450      -0.0000009808     0.999953    0.00043128
   23       -6.2834319047      -0.0000006597     0.999953    0.00035808
   24       -6.2834323486      -0.0000004439     0.999953    0.00029686
   25       -6.2834326474      -0.0000002988     0.999953    0.00024578
   26       -6.2834328486      -0.0000002012     0.999953    0.00020326
   27       -6.2834329841      -0.0000001355     0.999953    0.00016793
   28       -6.2834330754      -0.0000000913     0.999953    0.00013863
   29       -6.2834331368      -0.0000000615     0.999953    0.00011435
   30       -6.2834331783      -0.0000000414     0.999953    0.00009426
   31       -6.2834332062      -0.0000000279     0.999953    0.00007766
   32       -6.2834332250      -0.0000000188     0.999953    0.00006396
   33       -6.2834332376      -0.0000000127     0.999953    0.00005264
   34       -6.2834332462      -0.0000000085     0.999953    0.00004332
   35       -6.2834332519      -0.0000000058     0.999953    0.00003563
   36       -6.2834332558      -0.0000000039     0.999953    0.00002930
   37       -6.2834332584      -0.0000000026     0.999953    0.00002409
   38       -6.2834332602      -0.0000000018     0.999953    0.00001980
   39       -6.2834332614      -0.0000000012     0.999953    0.00001628
   40       -6.2834332622      -0.0000000008     0.999953    0.00001337
   41       -6.2834332627      -0.0000000005     0.999953    0.00001099
   42       -6.2834332631      -0.0000000004     0.999953    0.00000903
   43       -6.2834332633      -0.0000000002     0.999953    0.00000741
   44       -6.2834332635      -0.0000000002     0.999953    0.00000609
   45       -6.2834332636      -0.0000000001     0.999953    0.00000500
   46       -6.2834332637      -0.0000000001     0.999953    0.00000411
   47       -6.2834332637      -0.0000000001     0.999953    0.00000337
   48       -6.2834332638      -0.0000000000     0.999953    0.00000277
   49       -6.2834332638      -0.0000000000     0.999953    0.00000227
   50       -6.2834332638      -0.0000000000     0.999953    0.00000187
   51       -6.2834332638      -0.0000000000     0.999953    0.00000153
   52       -6.2834332638      -0.0000000000     0.999953    0.00000126
   53       -6.2834332638      -0.0000000000     0.999953    0.00000103
   54       -6.2834332638      -0.0000000000     0.999953    0.00000085
  
--------------------------------------------------
 Final SA-REKS(2,2) energy:      -6.28343326
  
 State     Energy      FON(1)    FON(2)   Spin
  PPS   -6.41007761   1.999905  0.000095  0.00
  OSS   -6.15678891   1.000000  1.000000  0.00
 Trip   -6.23760409   1.000000  1.000000  1.00
--------------------------------------------------

 Lagrangian Wab:  -0.00599598 -0.00599577

--------------------------------------------------
 SSR: 2SI-2SA-REKS(2,2) Hamiltonian matrix
               PPS           OSS
   PPS    -6.41007761   -0.00842104
   OSS    -0.00842104   -6.15678891
--------------------------------------------------

----------------------------------------------------------------
 SSR: 2SI-2SA-REKS(2,2) states
                    E_n       C_{PPS}    C_{OSS}
 SSR state  1   -6.41035728  -0.999449  -0.033192
 SSR state  2   -6.15650925   0.033192  -0.999449
----------------------------------------------------------------

 unrelaxed SSR FONs for S0:  1.998804  0.001196

Total Energy:                       -6.4103572782 H         -174.4347 eV
Extrapolated to 0:                  -6.4103572782 H         -174.4347 eV

----------------------------------------------------------------------------------
 Solving CP-REKS equation for  1 state vector...
----------------------------------------------------------------------------------
  CG solver: Constructing Y initial guess
  CG solver: Iteration    1    eps =    0.000106200210
  CG solver: Iteration    2    eps =    0.000057072990
  CG solver: Iteration    3    eps =    0.000003168893
  CG solver: Iteration    4    eps =    0.000000681792
  CG solver: Iteration    5    eps =    0.000000017126
  CG solver: Iteration    6    eps =    0.000000003051
  Convergence reached in CG solver after    6 iterations
  CG solver: Calculating converged R, Z, Q2 matrix
----------------------------------------------------------------------------------

----------------------------------------------------------------------------------
 Solving CP-REKS equation for SI between  1 and  2 state vectors...
----------------------------------------------------------------------------------
  CG solver: Constructing Y initial guess
  CG solver: Iteration    1    eps =    0.002114531812
  CG solver: Iteration    2    eps =    0.002564522725
  CG solver: Iteration    3    eps =    0.000431668407
  CG solver: Iteration    4    eps =    0.000005093469
  CG solver: Iteration    5    eps =    0.000000675832
  CG solver: Iteration    6    eps =    0.000000011773
  CG solver: Iteration    7    eps =    0.000000000405
  Convergence reached in CG solver after    7 iterations
  CG solver: Calculating converged R, Z, Q2 matrix
----------------------------------------------------------------------------------

--------------------------------------------------
 Gradient Information
--------------------------------------------------
           1 st state (SSR)
     0.00083629    -0.00821333     0.01828481
    -0.01037880     0.00240917    -0.01827507
     0.01263617    -0.00200558     0.00905157
     0.01687749     0.00090189    -0.00072390
    -0.00917149     0.00312005    -0.00517594
    -0.01079965     0.00378781    -0.00316146

           2 st state (SSR)
    -0.00236637    -0.00012582     0.12631201
     0.00929653     0.01269526    -0.14299784
    -0.01263828    -0.01581533     0.02399090
    -0.01337048     0.00444595    -0.00780288
     0.00657359    -0.00762178    -0.01437905
     0.01250501     0.00642172     0.01487685
--------------------------------------------------
 Coupling Information
--------------------------------------------------
 between  1 and  2 states
--------------------------------------------------
 g vector - difference gradient
     0.00156483    -0.00387285    -0.05504913
    -0.01013781    -0.00539531     0.06323262
     0.01351225     0.00671386    -0.00748630
     0.01607123    -0.00163273     0.00351603
    -0.00865801     0.00539251     0.00471739
    -0.01235249    -0.00120548    -0.00893062

 h vector - derivative coupling
     0.00060201    -0.00270451     0.01377953
     0.00418723     0.00362304    -0.01103151
    -0.01273989     0.00310192     0.00000219
    -0.01374351    -0.00215379     0.00047023
     0.01155138    -0.00014642    -0.00158932
     0.01014279    -0.00172025    -0.00163112

 G vector - GDV
     0.00160133    -0.00404375    -0.05401360
    -0.00983767    -0.00514305     0.06236138
     0.01263722     0.00690487    -0.00746966
     0.01512398    -0.00177203     0.00353949
    -0.00787254     0.00537091     0.00460155
    -0.01165233    -0.00131695    -0.00901916

 H vector - DCV - non-adiabatic coupling
     0.00195730    -0.00961833     0.06855091
     0.01910834     0.01565118    -0.05988820
    -0.05360813     0.01043791     0.00196526
    -0.05822189    -0.00803915     0.00092938
     0.04766774    -0.00198494    -0.00748009
     0.04309663    -0.00644668    -0.00407725
--------------------------------------------------


--------------------------------------------------------------------------------
DFTB+ running times                          cpu [s]             wall clock [s]
--------------------------------------------------------------------------------
SCC                                    +     0.03  ( 59.4%)      0.03  ( 56.0%)
Post-SCC processing                    +     0.02  ( 37.4%)      0.02  ( 36.0%)
  Force calculation                          0.02  ( 36.8%)      0.02  ( 34.0%)
--------------------------------------------------------------------------------
Missing                                +     0.00  (  3.2%)      0.00  (  8.0%)
Total                                  =     0.04  (100.0%)      0.05  (100.0%)
--------------------------------------------------------------------------------
