     6
  Step:     0            Position(A)                                  Velocity(au)
C        -0.04095308    -0.00040749     0.02815372     0.00006289    -0.00000942    -0.00034632
N        -0.04572628    -0.04241466     1.28903709    -0.00017238     0.00001919     0.00020168
H         0.94129104     0.05021333    -0.50652138    -0.00057336     0.00004258     0.00055522
H         0.83781492    -0.18375760     1.81820709     0.00145849    -0.00027957     0.00112038
H        -0.91213005    -0.05980913     1.85073286     0.00098792    -0.00001608    -0.00037510
H        -0.95648560     0.11783995    -0.51877155    -0.00022701     0.00009860     0.00002364
     6
  Step:     1            Position(A)                                  Velocity(au)
C        -0.04056914    -0.00046802     0.02590731     0.00007649    -0.00001441    -0.00047580
N        -0.04666499    -0.04232339     1.29045215    -0.00016849     0.00001211     0.00031639
H         0.93827308     0.05051111    -0.50337937    -0.00053169     0.00007744     0.00058793
H         0.84586692    -0.18524447     1.82427463     0.00146493    -0.00024867     0.00109006
H        -0.90687245    -0.05984383     1.84862164     0.00092182     0.00001483    -0.00038409
H        -0.95830772     0.11851632    -0.51876581    -0.00042514     0.00015980    -0.00002096
     6
  Step:     2            Position(A)                                  Velocity(au)
C        -0.04011622    -0.00056518     0.02294794     0.00008759    -0.00001944    -0.00061498
N        -0.04756973    -0.04228215     1.29249878    -0.00015960     0.00000237     0.00043917
H         0.93547366     0.05106059    -0.50008875    -0.00051836     0.00012080     0.00060144
H         0.85384297    -0.18647838     1.83013367     0.00142032    -0.00020100     0.00105208
H        -0.90204418    -0.05964692     1.84653042     0.00083715     0.00005456    -0.00035788
H        -0.96113712     0.11958838    -0.51900092    -0.00056500     0.00022430    -0.00007039
     6
  Step:     3            Position(A)                                  Velocity(au)
C        -0.03961014    -0.00068085     0.01917397     0.00009595    -0.00002123    -0.00075986
N        -0.04841242    -0.04229744     1.29526056    -0.00014574    -0.00000686     0.00056693
H         0.93259763     0.05183371    -0.49679427    -0.00052740     0.00015349     0.00059302
H         0.86141790    -0.18744525     1.83579384     0.00132589    -0.00015799     0.00100585
H        -0.89770650    -0.05924647     1.84470328     0.00073300     0.00008264    -0.00029833
H        -0.96449392     0.12097212    -0.51953649    -0.00064953     0.00027013    -0.00012423
     6
  Step:     4            Position(A)                                  Velocity(au)
C        -0.03906449    -0.00079795     0.01461849     0.00010167    -0.00002103    -0.00089468
N        -0.04916731    -0.04235731     1.29871333    -0.00012741    -0.00001455     0.00068680
H         0.92969240     0.05274316    -0.49358823    -0.00052233     0.00017531     0.00056837
H         0.86837710    -0.18821024     1.84115956     0.00119600    -0.00012145     0.00094168
H        -0.89400915    -0.05874107     1.84326022     0.00060073     0.00009820    -0.00021858
H        -0.96825714     0.12254947    -0.52036272    -0.00071531     0.00030060    -0.00017438
     6
  Step:     5            Position(A)                                  Velocity(au)
C        -0.03849373    -0.00091172     0.00934951     0.00010452    -0.00002021    -0.00101425
N        -0.04981154    -0.04245719     1.30280225    -0.00010520    -0.00002150     0.00079423
H         0.92686192     0.05375872    -0.49055307    -0.00049674     0.00019266     0.00052837
H         0.87455114    -0.18877891     1.84613435     0.00103776    -0.00008489     0.00086086
H        -0.89110991    -0.05816814     1.84230312     0.00044125     0.00010825    -0.00012163
H        -0.97234868     0.12427303    -0.52145133    -0.00076596     0.00032355    -0.00021861
     6
  Step:     6            Position(A)                                  Velocity(au)
C        -0.03791400    -0.00102041     0.00345468     0.00010427    -0.00001917    -0.00111515
N        -0.05032519    -0.04259396     1.30745534    -0.00007978    -0.00002785     0.00088624
H         0.92422484     0.05486374    -0.48777247    -0.00044897     0.00020713     0.00047317
H         0.87979960    -0.18914461     1.85063494     0.00085702    -0.00004718     0.00076632
H        -0.88915237    -0.05754956     1.84192147     0.00025884     0.00011472    -0.00001066
H        -0.97668799     0.12611072    -0.52276889    -0.00080078     0.00034071    -0.00025624
     6
  Step:     7            Position(A)                                  Velocity(au)
C        -0.03734263    -0.00112334    -0.00296153     0.00010078    -0.00001805    -0.00119467
N        -0.05069225    -0.04276464     1.31258623    -0.00005205    -0.00003357     0.00096053
H         0.92190534     0.05604537    -0.48532937    -0.00037906     0.00021914     0.00040355
H         0.88401252    -0.18929976     1.85459438     0.00066031    -0.00000862     0.00066163
H        -0.88825234    -0.05690160     1.84218549     0.00006022     0.00011840     0.00010987
H        -0.98118914     0.12803437    -0.52428017    -0.00081910     0.00035256    -0.00028714
     6
  Step:     8            Position(A)                                  Velocity(au)
C        -0.03679746    -0.00122038    -0.00978121     0.00009412    -0.00001693    -0.00125114
N        -0.05090183    -0.04296584     1.31809714    -0.00002310    -0.00003858     0.00101564
H         0.92002517     0.05729167    -0.48330144    -0.00028861     0.00022883     0.00032127
H         0.88711527    -0.18924012     1.85796521     0.00045499     0.00002993     0.00055094
H        -0.88848522    -0.05623784     1.84313870    -0.00014597     0.00011971     0.00023436
H        -0.98576288     0.13001674    -0.52595019    -0.00082093     0.00035932    -0.00031156
     6
  Step:     9            Position(A)                                  Velocity(au)
C        -0.03629570    -0.00131167    -0.01687817     0.00008459    -0.00001586    -0.00128434
N        -0.05094925    -0.04319373     1.32388330     0.00000584    -0.00004282     0.00105133
H         0.91869515     0.05859065    -0.48175582    -0.00018075     0.00023625     0.00022898
H         0.88907340    -0.18896689     1.86072251     0.00024891     0.00006740     0.00043878
H        -0.88987597    -0.05557004     1.84479232    -0.00034999     0.00011904     0.00035675
H        -0.99032050     0.13203114    -0.52774567    -0.00080723     0.00036132    -0.00032999
     6
  Step:    10            Position(A)                                  Velocity(au)
C        -0.03585271    -0.00139753    -0.02412592     0.00007268    -0.00001488    -0.00129588
N        -0.05083666    -0.04344410     1.32983942     0.00003356    -0.00004628     0.00106890
H         0.91800639     0.05993032    -0.48074395    -0.00005992     0.00024159     0.00013001
H         0.88989535    -0.18848738     1.86286597     0.00004977     0.00010276     0.00032978
H        -0.89239427    -0.05490825     1.84712327    -0.00054239     0.00011679     0.00047134
H        -0.99477875     0.13405236    -0.52963584    -0.00077989     0.00035918    -0.00034310
     6
  Step:    11            Position(A)                                  Velocity(au)
C        -0.03548080    -0.00147845    -0.03140778     0.00005906    -0.00001400    -0.00128928
N        -0.05057297    -0.04371262     1.33586791     0.00005903    -0.00004900     0.00107115
H         0.91802336     0.06129941    -0.48029817     0.00006887     0.00024522     0.00002780
H         0.88963138    -0.18781471     1.86442010    -0.00013584     0.00013524     0.00022814
H        -0.89595728    -0.05426055     1.85007706    -0.00071537     0.00011340     0.00057368
H        -0.99906478     0.13605827    -0.53159255    -0.00074169     0.00035381    -0.00035164
     6
  Step:    12            Position(A)                                  Velocity(au)
C        -0.03518845    -0.00155499    -0.03862670     0.00007060    -0.00002106    -0.00201681
N        -0.05017277    -0.04399519     1.34188689     0.00012950    -0.00008117     0.00168744
H         0.91878096     0.06268837    -0.48043127     0.00031906     0.00039350    -0.00011861
H         0.88836749    -0.18696628     1.86543196    -0.00048164     0.00026126     0.00021802
H        -0.90044021    -0.05363280     1.85357560    -0.00137257     0.00017372     0.00105053
H        -1.00312067     0.13803173    -0.53359082    -0.00110575     0.00055043    -0.00056682
     6
  Step:    13            Position(A)                                  Velocity(au)
C        -0.03483179    -0.00169151    -0.04953381     0.00005449    -0.00002685    -0.00181558
N        -0.04939664    -0.04443892     1.35106583     0.00014080    -0.00007464     0.00153702
H         0.92119770     0.06497474    -0.48169051     0.00052563     0.00040972    -0.00031739
H         0.88529657    -0.18550629     1.86644164    -0.00058283     0.00024986     0.00014621
H        -0.90849216    -0.05268769     1.85972355    -0.00143689     0.00015894     0.00109703
H        -1.00945009     0.14113292    -0.53707359    -0.00111194     0.00053858    -0.00065035
     6
  Step:    14            Position(A)                                  Velocity(au)
C        -0.03456759    -0.00186090    -0.05931259     0.00003832    -0.00003247    -0.00161846
N        -0.04856851    -0.04484559     1.35939903     0.00014744    -0.00006804     0.00138853
H         0.92476971     0.06735651    -0.48404742     0.00071952     0.00042586    -0.00050150
H         0.88172703    -0.18411951     1.86709776    -0.00065536     0.00023502     0.00009331
H        -0.91681155    -0.05182188     1.86607467    -0.00146332     0.00014554     0.00111965
H        -1.01578966     0.14416805    -0.54100065    -0.00110635     0.00052593    -0.00072129
     6
  Step:    15            Position(A)                                  Velocity(au)
C        -0.03439476    -0.00206184    -0.06799306     0.00002281    -0.00003808    -0.00143945
N        -0.04771502    -0.04521493     1.36690259     0.00015065    -0.00006191     0.00125385
H         0.92940409     0.06983190    -0.48741036     0.00090019     0.00044484    -0.00067272
H         0.87782192    -0.18282578     1.86750587    -0.00070492     0.00021850     0.00005903
H        -0.92518192    -0.05102778     1.87249371    -0.00146401     0.00013451     0.00112798
H        -1.02206850     0.14713141    -0.54530022    -0.00109661     0.00051622    -0.00078568
     6
  Step:    16            Position(A)                                  Velocity(au)
C        -0.03430821    -0.00229387    -0.07568023     0.00000823    -0.00004374    -0.00128043
N        -0.04685548    -0.04554960     1.37365625     0.00015098    -0.00005633     0.00113473
H         0.93500549     0.07241463    -0.49169681     0.00106615     0.00046732    -0.00083241
H         0.87371158    -0.18163496     1.86776898    -0.00073427     0.00020057     0.00004208
H        -0.93345849    -0.05029238     1.87890064    -0.00144382     0.00012590     0.00112579
H        -1.02825892     0.15003789    -0.54993447    -0.00108428     0.00051014    -0.00084641
     6
  Step:    17            Position(A)                                  Velocity(au)
C        -0.03430158    -0.00255696    -0.08248803    -0.00000531    -0.00004938    -0.00113756
N        -0.04600582    -0.04585262     1.37974817     0.00014841    -0.00005112     0.00102793
H         0.94147335     0.07512212    -0.49683355     0.00121339     0.00049233    -0.00097975
H         0.86950965    -0.18055520     1.86798222    -0.00074342     0.00018070     0.00004112
H        -0.94152654    -0.04960253     1.88523815    -0.00140222     0.00011925     0.00111264
H        -1.03434303     0.15290638    -0.55488189    -0.00106694     0.00050648    -0.00090325
     6
  Step:    18            Position(A)                                  Velocity(au)
C        -0.03436807    -0.00285075    -0.08850842    -0.00001767    -0.00005488    -0.00100658
N        -0.04518182    -0.04612605     1.38524813     0.00014280    -0.00004609     0.00092973
H         0.94868880     0.07796655    -0.50274539     0.00133684     0.00051833    -0.00111260
H         0.86532806    -0.17959723     1.86823264    -0.00073161     0.00015832     0.00005489
H        -0.94927119    -0.04894759     1.89144776    -0.00133766     0.00011406     0.00108702
H        -1.04029075     0.15574939    -0.56012031    -0.00104137     0.00050365    -0.00095474
     6
  Step:    19            Position(A)                                  Velocity(au)
C        -0.03450035    -0.00317421    -0.09380909    -0.00002872    -0.00006010    -0.00088459
N        -0.04439976    -0.04637094     1.39020489     0.00013413    -0.00004111     0.00083754
H         0.95650879     0.08095181    -0.50934703     0.00143222     0.00054395    -0.00122877
H         0.86128122    -0.17877454     1.86859959    -0.00069872     0.00013318     0.00008207
H        -0.95657131    -0.04831972     1.89746393    -0.00124993     0.00010992     0.00104823
H        -1.04605541     0.15857093    -0.56561984    -0.00100527     0.00050041    -0.00099949
     6
  Step:    20            Position(A)                                  Velocity(au)
C        -0.03469052    -0.00352564    -0.09844127    -0.00003833    -0.00006495    -0.00077001
N        -0.04367574    -0.04658768     1.39465266     0.00012259    -0.00003614     0.00074993
H         0.96477084     0.08407442    -0.51654303     0.00149704     0.00056818    -0.00132688
H         0.85748226    -0.17810175     1.86915422    -0.00064579     0.00010535     0.00012112
H        -0.96330636    -0.04771327     1.90321811    -0.00114048     0.00010658     0.00099668
H        -1.05157870     0.16136840    -0.57134333    -0.00095758     0.00049603    -0.00103670
     6
  Step:    21            Position(A)                                  Velocity(au)
C        -0.03493030    -0.00390286    -0.10244706    -0.00004645    -0.00006938    -0.00066210
N        -0.04302460    -0.04677632     1.39861756     0.00010853    -0.00003115     0.00066625
H         0.97330254     0.08732559    -0.52423194     0.00153066     0.00059039    -0.00140652
H         0.85403680    -0.17759277     1.86995831    -0.00057495     0.00007514     0.00017023
H        -0.96936514    -0.04712411     1.90864463    -0.00101208     0.00010384     0.00093368
H        -1.05679749     0.16413542    -0.57724949    -0.00089829     0.00049020    -0.00106618
     6
  Step:    22            Position(A)                                  Velocity(au)
C        -0.03521127    -0.00430345    -0.10586408    -0.00005309    -0.00007336    -0.00056049
N        -0.04245903    -0.04693689     1.40212195     0.00009242    -0.00002617     0.00058625
H         0.98193112     0.09069331    -0.53231149     0.00153402     0.00061029    -0.00146815
H         0.85103652    -0.17725937     1.87106266    -0.00048928     0.00004306     0.00022735
H        -0.97465277    -0.04654916     1.91368559    -0.00086828     0.00010156     0.00086110
H        -1.06164949     0.16686402    -0.58329623    -0.00082813     0.00048288    -0.00108819
     6
  Step:    23            Position(A)                                  Velocity(au)
C        -0.03552523    -0.00472492    -0.10872757    -0.00005832    -0.00007691    -0.00046493
N        -0.04198899    -0.04706953     1.40518670     0.00007479    -0.00002122     0.00050985
H         0.99049187     0.09416411    -0.54068324     0.00150916     0.00062777    -0.00151291
H         0.84855425    -0.17711023     1.87250581    -0.00039248     0.00000973     0.00029023
H        -0.97909459    -0.04598612     1.91829365    -0.00071293     0.00009963     0.00078105
H        -1.06607702     0.16954628    -0.58944317    -0.00074816     0.00047422    -0.00110330
     6
  Step:    24            Position(A)                                  Velocity(au)
C        -0.03586445    -0.00516487    -0.11107119    -0.00006224    -0.00008006    -0.00037517
N        -0.04162137    -0.04717454     1.40783214     0.00005620    -0.00001634     0.00043701
H         0.99883332     0.09772416    -0.54925570     0.00145880     0.00064288    -0.00154227
H         0.84664078    -0.17715043     1.87431318    -0.00028865    -0.00002421     0.00035655
H        -0.98263737    -0.04543329     1.92243317    -0.00054980     0.00009798     0.00069562
H        -1.07002868     0.17217513    -0.59565295    -0.00065960     0.00046443    -0.00111217
     6
  Step:    25            Position(A)                                  Velocity(au)
C        -0.03622194    -0.00562108    -0.11292702    -0.00006499    -0.00008285    -0.00029091
N        -0.04135996    -0.04725244     1.41007830     0.00003717    -0.00001157     0.00036766
H         1.00682073     0.10136013    -0.55794631     0.00138603     0.00065577    -0.00155789
H         0.84532332    -0.17738128     1.87649681    -0.00018198    -0.00005810     0.00042395
H        -0.98524865    -0.04488944     1.92607997    -0.00038242     0.00009651     0.00060678
H        -1.07346014     0.17474480    -0.60189200    -0.00056370     0.00045377    -0.00111549
     6
  Step:    26            Position(A)                                  Velocity(au)
C        -0.03659146    -0.00609159    -0.11432527    -0.00006671    -0.00008531    -0.00021176
N        -0.04120560    -0.04730394     1.41194475     0.00001822    -0.00000694     0.00030169
H         1.01433727     0.10505955    -0.56668212     0.00129393     0.00066659    -0.00156144
H         0.84460521    -0.17780031     1.87905541    -0.00007662    -0.00009128     0.00049009
H        -0.98691504    -0.04435373     1.92922050    -0.00021397     0.00009517     0.00051627
H        -1.07633418     0.17725094    -0.60813068    -0.00046166     0.00044247    -0.00111392
     6
  Step:    27            Position(A)                                  Velocity(au)
C        -0.03696757    -0.00657468    -0.11529403    -0.00006752    -0.00008750    -0.00013733
N        -0.04115629    -0.04732996     1.41345045    -0.00000017    -0.00000247     0.00023894
H         1.02128374     0.10881106    -0.57539954     0.00118537     0.00067551    -0.00155442
H         0.84446688    -0.17840154     1.88197488     0.00002349    -0.00012315     0.00055277
H        -0.98764038    -0.04382567     1.93185064    -0.00004735     0.00009390     0.00042567
H        -1.07862036     0.17969051    -0.61434298    -0.00035457     0.00043073    -0.00110804
     6
  Step:    28            Position(A)                                  Velocity(au)
C        -0.03734554    -0.00706886    -0.11585905    -0.00006754    -0.00008944    -0.00006719
N        -0.04120754    -0.04733156     1.41461343    -0.00001759     0.00000179     0.00017924
H         1.02757642     0.11260422    -0.58404313     0.00106294     0.00068267    -0.00153813
H         0.84486760    -0.17917570     1.88522914     0.00011480    -0.00015315     0.00060992
H        -0.98744384    -0.04330502     1.93397468     0.00011486     0.00009265     0.00033636
H        -1.08029435     0.18206163    -0.62050607    -0.00024347     0.00041872    -0.00109831
     6
  Step:    29            Position(A)                                  Velocity(au)
C        -0.03772125    -0.00757284    -0.11604380    -0.00006687    -0.00009118    -0.00000094
N        -0.04135255    -0.04730996     1.41545068    -0.00003363     0.00000584     0.00012238
H         1.03314581     0.11642945    -0.59256460     0.00092896     0.00068818    -0.00151369
H         0.84574804    -0.18011068     1.88878136     0.00019423    -0.00018082     0.00065971
H        -0.98635858    -0.04279173     1.93560434     0.00027023     0.00009140     0.00024962
H        -1.08133736     0.18436328    -0.62659974    -0.00012926     0.00040657    -0.00108511
     6
  Step:    30            Position(A)                                  Velocity(au)
C        -0.03809114    -0.00808554    -0.11586948    -0.00006560    -0.00009272     0.00006180
N        -0.04158258    -0.04726647     1.41597803    -0.00004799     0.00000964     0.00006816
H         1.03793503     0.12027794    -0.60092181     0.00078556     0.00069214    -0.00148203
H         0.84703338    -0.18119195     1.89258535     0.00025926    -0.00020574     0.00070057
H        -0.98443054    -0.04228588     1.93675814     0.00041651     0.00009012     0.00016662
H        -1.08173571     0.18659518    -0.63260584    -0.00001284     0.00039438    -0.00106874
     6
  Step:    31            Position(A)                                  Velocity(au)
C        -0.03845215    -0.00860600    -0.11535524    -0.00006381    -0.00009411     0.00012134
N        -0.04188722    -0.04720252     1.41621014    -0.00006036     0.00001319     0.00001639
H         1.04189862     0.12414144    -0.60907770     0.00063461     0.00069463    -0.00144396
H         0.84863675    -0.18240303     1.89658722     0.00030800    -0.00022759     0.00073123
H        -0.98171773    -0.04178759     1.93746087     0.00055153     0.00008882     0.00008848
H        -1.08148043     0.18875753    -0.63850787     0.00010496     0.00038222    -0.00104943
     6
  Step:    32            Position(A)                                  Velocity(au)
C        -0.03880161    -0.00913338    -0.11451843    -0.00006156    -0.00009534     0.00017797
N        -0.04225463    -0.04711959     1.41616053    -0.00007052     0.00001648    -0.00003312
H         1.04500104     0.12801215    -0.61699932     0.00047783     0.00069568    -0.00140009
H         0.85046273    -0.18372601     1.90072707     0.00033918    -0.00024615     0.00075073
H        -0.97828962    -0.04129697     1.93774329     0.00067322     0.00008749     0.00001627
H        -1.08056708     0.19085090    -0.64429057     0.00022330     0.00037013    -0.00102736
     6
  Step:    33            Position(A)                                  Velocity(au)
C        -0.03913717    -0.00966693    -0.11337495    -0.00005891    -0.00009644     0.00023189
N        -0.04267192    -0.04701919     1.41584165    -0.00007829     0.00001949    -0.00008053
H         1.04721563     0.13188259    -0.62465712     0.00031677     0.00069535    -0.00135099
H         0.85241095    -0.18514199     1.90494089     0.00035219    -0.00026126     0.00075846
H        -0.97422654    -0.04081407     1.93764188     0.00077962     0.00008616    -0.00004898
H        -1.07899565     0.19287611    -0.64993970     0.00034137     0.00035816    -0.00100267
     6
  Step:    34            Position(A)                                  Velocity(au)
C        -0.03945677    -0.01020597    -0.11193949    -0.00005590    -0.00009741     0.00028327
N        -0.04312536    -0.04690286     1.41526496    -0.00008355     0.00002222    -0.00012598
H         1.04852401     0.13574550    -0.63202431     0.00015288     0.00069365    -0.00129708
H         0.85437966    -0.18663161     1.90916233     0.00034705    -0.00027288     0.00075414
H        -0.96961910    -0.04033879     1.93719851     0.00086890     0.00008484    -0.00010630
H        -1.07677049     0.19483416    -0.65544179     0.00045834     0.00034633    -0.00097550
     6
  Step:    35            Position(A)                                  Velocity(au)
C        -0.03975858    -0.01074985    -0.11022590    -0.00005256    -0.00009826     0.00033221
N        -0.04360075    -0.04677214     1.41444110    -0.00008623     0.00002469    -0.00016961
H         1.04891516     0.13959376    -0.63907642    -0.00001249     0.00069060    -0.00123876
H         0.85626902    -0.18817552     1.91332452     0.00032434    -0.00028103     0.00073781
H        -0.96456722    -0.03987091     1.93646012     0.00093944     0.00008358    -0.00015481
H        -1.07390041     0.19672618    -0.66078412     0.00057334     0.00033467    -0.00094597
     6
  Step:    36            Position(A)                                  Velocity(au)
C        -0.04004091    -0.01129796    -0.10824750    -0.00004893    -0.00009899     0.00037878
N        -0.04408367    -0.04662853     1.41338004    -0.00008632     0.00002688    -0.00021149
H         1.04838521     0.14342033    -0.64579095    -0.00017800     0.00068621    -0.00117639
H         0.85798410    -0.18975479     1.91736177     0.00028515    -0.00028582     0.00070979
H        -0.95917890    -0.03940998     1.93547807     0.00098991     0.00008240    -0.00019375
H        -1.07039880     0.19855343    -0.66595461     0.00068551     0.00032320    -0.00091421
     6
  Step:    37            Position(A)                                  Velocity(au)
C        -0.04030227    -0.01184969    -0.10601731    -0.00004504    -0.00009959     0.00042296
N        -0.04455980    -0.04647349     1.41209121    -0.00008385     0.00002881    -0.00025168
H         1.04693737     0.14721830    -0.65214736    -0.00034233     0.00068051    -0.00111035
H         0.85943728    -0.19135129     1.92121104     0.00023100    -0.00028742     0.00067069
H        -0.95356834    -0.03895536     1.93430734     0.00101937     0.00008135    -0.00022257
H        -1.06628372     0.20031727    -0.67094192     0.00079394     0.00031194    -0.00088036
     6
  Step:    38            Position(A)                                  Velocity(au)
C        -0.04054135    -0.01240446    -0.10354833    -0.00004093    -0.00010009     0.00046474
N        -0.04501527    -0.04630843     1.41058381    -0.00007895     0.00003050    -0.00029020
H         1.04458191     0.15098088    -0.65812706    -0.00050413     0.00067352    -0.00104101
H         0.86055048    -0.19294807     1.92481326     0.00016378    -0.00028607     0.00062136
H        -0.94785361    -0.03850618     1.93300532     0.00102736     0.00008046    -0.00024094
H        -1.06157805     0.20201917    -0.67573550     0.00089773     0.00030093    -0.00084459
     6
  Step:    39            Position(A)                                  Velocity(au)
C        -0.04075698    -0.01296170    -0.10085379    -0.00003661    -0.00010047     0.00050405
N        -0.04543694    -0.04613468     1.40886694    -0.00007177     0.00003194    -0.00032702
H         1.04133626     0.15470146    -0.66371351    -0.00066206     0.00066529    -0.00096878
H         0.86125697    -0.19452961     1.92811465     0.00008570    -0.00028204     0.00056285
H        -0.94215391    -0.03806138     1.93163039     0.00101395     0.00007978    -0.00024883
H        -1.05630952     0.20366078    -0.68032569     0.00099596     0.00029020    -0.00080707
     6
  Step:    40            Position(A)                                  Velocity(au)
C        -0.04094816    -0.01352085    -0.09794728    -0.00003213    -0.00010073     0.00054077
N        -0.04581276    -0.04595346     1.40694988    -0.00006254     0.00003318    -0.00036209
H         1.03722503     0.15837369    -0.66889234    -0.00081476     0.00065587    -0.00089410
H         0.86150280    -0.19608215     1.93106778    -0.00000082    -0.00027568     0.00049642
H        -0.93658646    -0.03761966     1.93024032     0.00097982     0.00007933    -0.00024651
H        -1.05051083     0.20524389    -0.68470383     0.00108771     0.00027977    -0.00076803
     6
  Step:    41            Position(A)                                  Velocity(au)
C        -0.04111408    -0.01408136    -0.09484301    -0.00002752    -0.00010089     0.00057480
N        -0.04613210    -0.04576592     1.40484231    -0.00005155     0.00003421    -0.00039529
H         1.03228006     0.16199153    -0.67365158    -0.00096090     0.00064533    -0.00081746
H         0.86124786    -0.19759387     1.93363246    -0.00009320    -0.00026737     0.00042347
H        -0.93126315    -0.03717960     1.92889041     0.00092625     0.00007915    -0.00023461
H        -1.04421950     0.20677048    -0.68886246     0.00117210     0.00026970    -0.00072770
     6
  Step:    42            Position(A)                                  Velocity(au)
C        -0.04125412    -0.01464268    -0.09155586    -0.00002281    -0.00010094     0.00060599
N        -0.04638598    -0.04557307     1.40255452    -0.00003913     0.00003507    -0.00042649
H         1.02654042     0.16554936    -0.67798189    -0.00109915     0.00063377    -0.00073936
H         0.86046653    -0.19905510     1.93577652    -0.00018875    -0.00025749     0.00034552
H        -0.92628719    -0.03673961     1.92763162     0.00085517     0.00007924    -0.00021410
H        -1.03747785     0.20824275    -0.69279537     0.00124828     0.00026002    -0.00068634
     6
  Step:    43            Position(A)                                  Velocity(au)
C        -0.04136785    -0.01520432    -0.08810155    -0.00001805    -0.00010090     0.00063418
N        -0.04656739    -0.04537582     1.40009768    -0.00002565     0.00003577    -0.00045552
H         1.02005233     0.16904208    -0.68187680    -0.00122820     0.00062130    -0.00066040
H         0.85914801    -0.20045841     1.93747632    -0.00028481    -0.00024648     0.00026418
H        -0.92174956    -0.03629804     1.92650855     0.00076914     0.00007964    -0.00018633
H        -1.03033268     0.20966312    -0.69649783     0.00131547     0.00025078    -0.00064425
     6
  Step:    44            Position(A)                                  Velocity(au)
C        -0.04145506    -0.01576578    -0.08449668    -0.00001328    -0.00010076     0.00065921
N        -0.04667153    -0.04517494     1.39748400    -0.00001154     0.00003634    -0.00048217
H         1.01286897     0.17246525    -0.68533300    -0.00134683     0.00060807    -0.00058119
H         0.85729620    -0.20179876     1.93871716    -0.00037874    -0.00023477     0.00018109
H        -0.91772573    -0.03585317     1.92555754     0.00067122     0.00008032    -0.00015294
H        -1.02283499     0.21103426    -0.69996664     0.00137297     0.00024203    -0.00060173
     6