    14
  Step:     0            Position(A)                                  Velocity(au)
C        -6.00632941    -0.68276190    -0.20934992     0.00019058    -0.00003465     0.00014348
C        -4.76947225    -0.72863539     0.19316683    -0.00013732     0.00009859     0.00001590
H        -6.50357417     0.16069189    -0.75126627     0.00050107    -0.00142108    -0.00024949
H        -6.60459284    -1.60762963    -0.11592427    -0.00065450    -0.00000795    -0.00061190
H        -4.37379985    -1.63464314     0.69941362     0.00038939     0.00023264    -0.00094664
C        -3.85844372     0.37511928     0.03740264    -0.00007930     0.00027152    -0.00011706
C        -2.47878539     0.41468139     0.25405038     0.00027014     0.00016019     0.00009557
H        -4.36968045     1.27200285    -0.42565993     0.00046195    -0.00070786    -0.00022222
H        -2.04458856    -0.42438596     0.74956646     0.00011616    -0.00007985    -0.00008571
C        -1.84628094     1.63637701    -0.06872351    -0.00050582    -0.00019765    -0.00000504
H        -2.44231595     2.38119242    -0.53060510     0.00061067    -0.00030065     0.00038581
N        -0.55715903     1.89575219     0.17479748     0.00006421     0.00001945     0.00010704
H        -0.12011166     2.77969131    -0.17031197     0.00000229    -0.00025229    -0.00057994
H         0.14801432     1.27774053     0.66829560     0.00079934    -0.00128426    -0.00076039
    14
  Step:     1            Position(A)                                  Velocity(au)
C        -6.00493065    -0.68319123    -0.20803050     0.00006389    -0.00004679     0.00009801
C        -4.77025219    -0.72754720     0.19359655    -0.00000353     0.00010158     0.00006228
H        -6.49734244     0.14453991    -0.75332275     0.00062305    -0.00149776    -0.00014245
H        -6.61188764    -1.60702093    -0.12263137    -0.00066652     0.00012412    -0.00060929
H        -4.36979813    -1.63170535     0.68862111     0.00034582     0.00029258    -0.00101578
C        -3.85985980     0.37809998     0.03596785    -0.00017840     0.00027021    -0.00014399
C        -2.47559931     0.41658795     0.25513292     0.00031055     0.00018674     0.00010249
H        -4.36363060     1.26352481    -0.42749549     0.00062831    -0.00081333    -0.00012508
H        -2.04227097    -0.42578078     0.74892617     0.00030529    -0.00016863    -0.00003341
C        -1.85185113     1.63398704    -0.06871691    -0.00050565    -0.00023912     0.00000797
H        -2.43602601     2.37900789    -0.52696975     0.00051526    -0.00007584     0.00026415
N        -0.55613095     1.89605476     0.17600864     0.00012165     0.00003327     0.00011463
H        -0.12088522     2.77572951    -0.17614426    -0.00013819    -0.00046471    -0.00048750
H         0.15481453     1.26455119     0.65897000     0.00042778    -0.00110729    -0.00095405
    14
  Step:     2            Position(A)                                  Velocity(au)
C        -6.00493165    -0.68378559    -0.20720571    -0.00006234    -0.00006498     0.00005426
C        -4.76954943    -0.72641321     0.19452928     0.00013092     0.00010722     0.00010687
H        -6.48994377     0.12792542    -0.75438254     0.00070920    -0.00149870    -0.00007296
H        -6.61917428    -1.60491423    -0.12925363    -0.00065645     0.00026041    -0.00059618
H        -4.36623436    -1.62824238     0.67719140     0.00031226     0.00032490    -0.00106066
C        -3.86234645     0.38103058     0.03425249    -0.00027384     0.00026182    -0.00016786
C        -2.47199148     0.41876675     0.25629256     0.00034714     0.00020935     0.00010992
H        -4.35593490     1.25420966    -0.42839637     0.00075712    -0.00085354    -0.00005612
H        -2.03790977    -0.42807516     0.74883548     0.00048601    -0.00023854     0.00001131
C        -1.85734301     1.63114586    -0.06854904    -0.00049216    -0.00027892     0.00002381
H        -2.43104365     2.37953322    -0.52482629     0.00038061     0.00018289     0.00012037
N        -0.55449775     1.89648003     0.17730525     0.00017332     0.00004178     0.00012232
H        -0.12313485     2.76952488    -0.18097700    -0.00026139    -0.00065074    -0.00040205
H         0.15737275     1.25351648     0.64742391     0.00003803    -0.00090152    -0.00115680
    14
  Step:     3            Position(A)                                  Velocity(au)
C        -6.00629444    -0.68461284    -0.20684352    -0.00018229    -0.00008936     0.00001454
C        -4.76738805    -0.72520159     0.19593461     0.00026046     0.00011594     0.00014779
H        -6.48182725     0.11175297    -0.75491898     0.00075033    -0.00141197    -0.00005140
H        -6.62624867    -1.60132392    -0.13567394    -0.00063156     0.00038976    -0.00057242
H        -4.36296684    -1.62459749     0.66541724     0.00029421     0.00032296    -0.00107692
C        -3.86585062     0.38382781     0.03229551    -0.00036314     0.00024540    -0.00018769
C        -2.46800506     0.42116792     0.25753773     0.00037937     0.00022674     0.00011834
H        -4.34706723     1.24485193    -0.42872324     0.00083769    -0.00081489    -0.00002453
H        -2.03163847    -0.43099929     0.74917359     0.00065151    -0.00027956     0.00004236
C        -1.86261802     1.62788520    -0.06819603    -0.00046688    -0.00031419     0.00004097
H        -2.42769937     2.38300889    -0.52433640     0.00022669     0.00044875    -0.00002920
N        -0.55233916     1.89696879     0.17868457     0.00021637     0.00004492     0.00012947
H        -0.12660355     2.76149342    -0.18493979    -0.00035566    -0.00078844    -0.00033305
H         0.15564649     1.24482879     0.63366284    -0.00034152    -0.00068975    -0.00135027
    14
  Step:     4            Position(A)                                  Velocity(au)
C        -6.00891968    -0.68574045    -0.20688758    -0.00029087    -0.00011960    -0.00001918
C        -4.76385127    -0.72387687     0.19776252     0.00038009     0.00012792     0.00018343
H        -6.47352886     0.09703579    -0.75550701     0.00074078    -0.00123118    -0.00008500
H        -6.63299085    -1.59638745    -0.14177636    -0.00059988     0.00050110    -0.00053823
H        -4.35979805    -1.62117700     0.65363171     0.00029606     0.00028236    -0.00106194
C        -3.87029078     0.38639922     0.03014644    -0.00044371     0.00022038    -0.00020260
C        -2.46369194     0.42372716     0.25888151     0.00040620     0.00023759     0.00012810
H        -4.33760891     1.23638235    -0.42893306     0.00086212    -0.00068779    -0.00003758
H        -2.02365670    -0.43419096     0.74976218     0.00079672    -0.00028516     0.00005566
C        -1.86755700     1.62427235    -0.06765268    -0.00043160    -0.00034153     0.00005769
H        -2.42608432     2.38935051    -0.52546503     0.00007508     0.00069185    -0.00016664
N        -0.54976425     1.89746270     0.18013768     0.00024828     0.00004298     0.00013554
H        -0.13091553     2.75227632    -0.18826308    -0.00041145    -0.00085957    -0.00028898
H         0.14990140     1.23842680     0.61788422    -0.00068295    -0.00049573    -0.00151770
    14
  Step:     5            Position(A)                                  Velocity(au)
C        -6.01265774    -0.68722927    -0.20726317    -0.00038421    -0.00015466    -0.00004568
C        -4.75907284    -0.72240302     0.19994749     0.00048572     0.00014302     0.00021263
H        -6.46562118     0.08481855    -0.75677846     0.00068066    -0.00095892    -0.00017517
H        -6.63937224    -1.59036149    -0.14744875    -0.00056983     0.00058390    -0.00049415
H        -4.35648999    -1.61842024     0.64218527     0.00032052     0.00020201    -0.00101533
C        -3.87555763     0.38864913     0.02786330    -0.00051324     0.00018691    -0.00021203
C        -2.45911856     0.42636575     0.26034021     0.00042617     0.00024068     0.00013942
H        -4.32820681     1.22980524    -0.42954529     0.00082741    -0.00047025    -0.00009838
H        -2.01420869    -0.43723779     0.75039120     0.00091859    -0.00025282     0.00004948
C        -1.87206006     1.62041351    -0.06693392    -0.00038791    -0.00035756     0.00007223
H        -2.42605689     2.39814451    -0.52798192    -0.00005527     0.00088476    -0.00027586
N        -0.54690753     1.89790913     0.18164974     0.00026696     0.00003682     0.00013996
H        -0.13560485     2.74268873    -0.19126187    -0.00042249    -0.00085199    -0.00027619
H         0.14070561     1.23398368     0.60046022    -0.00095912    -0.00034420    -0.00164404
    14
  Step:     6            Position(A)                                  Velocity(au)
C        -6.01732499    -0.68912386    -0.20788695    -0.00046007    -0.00019254    -0.00006472
C        -4.75322519    -0.72074804     0.20241414     0.00057446     0.00016062     0.00023477
H        -6.45863814     0.07605761    -0.75933924     0.00057736    -0.00060975    -0.00031489
H        -6.64545706    -1.58361345    -0.15258694    -0.00054971     0.00062881    -0.00044103
H        -4.35278615    -1.61675773     0.63141947     0.00036800     0.00008509    -0.00093928
C        -3.88151884     0.39048819     0.02550781    -0.00057006     0.00014613    -0.00021599
C        -2.45436864     0.42899247     0.26193160     0.00043776     0.00023503     0.00015235
H        -4.31950765     1.22609467    -0.43108539     0.00073743    -0.00017160    -0.00020373
H        -2.00356087    -0.43972186     0.75084454     0.00101596    -0.00018377     0.00002430
C        -1.87604338     1.61645010    -0.06607248    -0.00033709    -0.00035949     0.00008320
H        -2.42729353     2.40870628    -0.53149997    -0.00015116     0.00100724    -0.00034532
N        -0.54392392     1.89826824     0.18319950     0.00027089     0.00002796     0.00014210
H        -0.14015838     2.73363746    -0.19430521    -0.00038706    -0.00076250    -0.00029744
H         0.12891875     1.23089669     0.58191775    -0.00114503    -0.00025989    -0.00171672
    14
  Step:     7            Position(A)                                  Velocity(au)
C        -6.02272274    -0.69144154    -0.20867902    -0.00051792    -0.00023033    -0.00007716
C        -4.74650534    -0.71888921     0.20508353     0.00064471     0.00017961     0.00024982
H        -6.45299027     0.07147903    -0.76366736     0.00044554    -0.00021095    -0.00048781
H        -6.65139812    -1.57660508    -0.15709721    -0.00054699     0.00062842    -0.00037992
H        -4.34843934    -1.61655871     0.62163662     0.00043627    -0.00006017    -0.00083873
C        -3.88802867     0.39184604     0.02313820    -0.00061347     0.00010040    -0.00021515
C        -2.44954179     0.43150747     0.26367317     0.00043974     0.00022014     0.00016679
H        -4.31207407     1.22605117    -0.43400236     0.00060355     0.00018542    -0.00034261
H        -1.99198254    -0.44125815     0.75092275     0.00108933    -0.00008248    -0.00001751
C        -1.87943456     1.61254900    -0.06511367    -0.00028003    -0.00034563     0.00008974
H        -2.42936374     2.42017983    -0.53553637    -0.00020634     0.00104886    -0.00036933
N        -0.54098133     1.89852080     0.18475839     0.00025939     0.00001855     0.00014130
H        -0.14407264     2.72600763    -0.19776893    -0.00030891    -0.00059897    -0.00035069
H         0.11565581     1.22829808     0.56290378    -0.00122095    -0.00026455    -0.00172741
    14
  Step:     8            Position(A)                                  Velocity(au)
C        -6.02865551    -0.69416284    -0.20957490    -0.00055871    -0.00026450    -0.00008479
C        -4.73912092    -0.71681880     0.20787944     0.00069606     0.00019839     0.00025827
H        -6.44889101     0.07144278    -0.77001094     0.00030476     0.00020037    -0.00066997
H        -6.65742362    -1.56986562    -0.16089848    -0.00056749     0.00057832    -0.00031209
H        -4.34324199    -1.61807400     0.61307053     0.00052050    -0.00022073    -0.00072092
C        -3.89493957     0.39268457     0.02080090    -0.00064372     0.00005312    -0.00021092
C        -2.44474839     0.43380847     0.26558040     0.00043142     0.00019610     0.00018246
H        -4.30630380     1.23015107    -0.43858056     0.00044325     0.00056593    -0.00049678
H        -1.97972974    -0.44152623     0.75046153     0.00114043     0.00004411    -0.00007212
C        -1.88216954     1.60888881    -0.06410915    -0.00021744    -0.00031555     0.00009155
H        -2.43180757     2.43165208    -0.53957982    -0.00022092     0.00100895    -0.00034788
N        -0.53824929     1.89867417     0.18629063     0.00023302     0.00001106     0.00013699
H        -0.14691632     2.72053374    -0.20197717    -0.00019726    -0.00038079    -0.00042844
H         0.10220807     1.22510915     0.54412737    -0.00117720    -0.00037179    -0.00167448
    14
  Step:     9            Position(A)                                  Velocity(au)
C        -6.03494567    -0.69722792    -0.21053394    -0.00058446    -0.00029156    -0.00008990
C        -4.73127776    -0.71454900     0.21073376     0.00072907     0.00021501     0.00026103
H        -6.44632317     0.07586244    -0.77832423     0.00017520     0.00058360    -0.00083446
H        -6.66381297    -1.56395321    -0.16392486    -0.00061429     0.00047820    -0.00023899
H        -4.33705237    -1.62138751     0.60586502     0.00061393    -0.00038006    -0.00059452
C        -3.90211122     0.39300812     0.01852386    -0.00066168     0.00000834    -0.00020511
C        -2.44010360     0.43579764     0.26766483     0.00041262     0.00016365     0.00019893
H        -4.30237723     1.23843200    -0.44487041     0.00027657     0.00092835    -0.00064388
H        -1.96703338    -0.44029309     0.74934497     0.00117195     0.00018734    -0.00013478
C        -1.88419149     1.60564576    -0.06311083    -0.00015000    -0.00027002     0.00008881
H        -2.43419687     2.44225257    -0.54314694    -0.00019958     0.00089468    -0.00028530
N        -0.53588365     1.89876269     0.18775539     0.00019382     0.00000758     0.00012893
H        -0.14838814     2.71767723    -0.20714189    -0.00006576    -0.00013663    -0.00051835
H         0.08990238     1.22016437     0.52627133    -0.00101928    -0.00058067    -0.00156519
    14
  Step:    10            Position(A)                                  Velocity(au)
C        -6.04144171    -0.70054119    -0.21154162    -0.00059769    -0.00030883    -0.00009471
C        -4.72317106    -0.71211495     0.21358991     0.00074497     0.00022733     0.00025922
H        -6.44505826     0.08421006    -0.78826634     0.00007322     0.00090251    -0.00095711
H        -6.67086246    -1.55940408    -0.16612679    -0.00068685     0.00033286    -0.00016222
H        -4.32981109    -1.62638843     0.60006421     0.00070884    -0.00052038    -0.00046837
C        -3.90941506     0.39286703     0.01631381    -0.00066840    -0.00002994    -0.00019955
C        -2.43572159     0.43738857     0.26993246     0.00038368     0.00012413     0.00021563
H        -4.30025329     1.25046048    -0.45266669     0.00012179     0.00123255    -0.00076214
H        -1.95409117    -0.43742772     0.74751299     0.00118716     0.00033752    -0.00020027
C        -1.88545117     1.60298163    -0.06216634    -0.00007850    -0.00021083     0.00008208
H        -2.43617387     2.45122482    -0.54582139    -0.00014960     0.00071843    -0.00018873
N        -0.53400919     1.89884007     0.18911122     0.00014534     0.00000919     0.00011733
H        -0.14835505     2.71754474    -0.21331708     0.00006989     0.00010030    -0.00060522
H         0.07990942     1.21240590     0.50988592    -0.00077093    -0.00087053    -0.00141622
    14
  Step:    11            Position(A)                                  Velocity(au)
C        -6.04802133    -0.70398421    -0.21260581    -0.00060101    -0.00031504    -0.00010088
C        -4.71498021    -0.70957580     0.21640461     0.00074523     0.00023324     0.00025403
H        -6.44472139     0.09560659    -0.79926295     0.00000839     0.00113153    -0.00102128
H        -6.67883912    -1.55667124    -0.16747381    -0.00078028     0.00015275    -0.00008356
H        -4.32154515    -1.63277185     0.59561847     0.00079777    -0.00062537    -0.00035026
C        -3.91673379     0.39235320     0.01415822    -0.00066475    -0.00005842    -0.00019576
C        -2.43170976     0.43851328     0.27238218     0.00034543     0.00007951     0.00023184
H        -4.29971291     1.26539646    -0.46154367    -0.00000815     0.00144772    -0.00083487
H        -1.94106196    -0.43290911     0.74496375     0.00118976     0.00048452    -0.00026329
C        -1.88590877     1.60103351    -0.06131524    -0.00000387    -0.00014056     0.00007220
H        -2.43746972     2.45796962    -0.54727585    -0.00007931     0.00049551    -0.00006673
N        -0.53270417     1.89896379     0.19032212     0.00009224     0.00001542     0.00010291
H        -0.14685922     2.71987146    -0.22038233     0.00019467     0.00029843    -0.00067391
H         0.07303677     1.20111978     0.49528870    -0.00047220    -0.00120091    -0.00125130
    14
  Step:    12            Position(A)                                  Velocity(au)
C        -6.05458998    -0.70743328    -0.21374859    -0.00059681    -0.00031046    -0.00010932
C        -4.70686763    -0.70701242     0.21914727     0.00073137     0.00023097     0.00024654
H        -6.44487478     0.10896452    -0.81060890    -0.00001697     0.00125834    -0.00101979
H        -6.68793257    -1.55606237    -0.16795487    -0.00088562    -0.00004663    -0.00000480
H        -4.31235841    -1.64006951     0.59240149     0.00087454    -0.00068251    -0.00024604
C        -3.92395777     0.39158895     0.01203109    -0.00065124    -0.00007494    -0.00019465
C        -2.42816459     0.43912797     0.27500448     0.00029901     0.00003219     0.00024676
H        -4.30043166     1.28213219    -0.47093115    -0.00010694     0.00155674    -0.00085295
H        -1.92806294    -0.42682787     0.74175309     0.00118359     0.00061831    -0.00031874
C        -1.88553574     1.59990651    -0.06058684     0.00007278    -0.00006241     0.00006019
H        -2.43790903     2.46206505    -0.54728126     0.00000279     0.00024254     0.00007158
N        -0.53199118     1.89917735     0.19136259     0.00003960     0.00002437     0.00008675
H        -0.14409633     2.72407344    -0.22806017     0.00029655     0.00043331    -0.00071213
H         0.06957908     1.18613379     0.48251123    -0.00017165    -0.00151844    -0.00109588
    14
  Step:    13            Position(A)                                  Velocity(au)
C        -6.06107764    -0.71077617    -0.21499740    -0.00058713    -0.00029672    -0.00012016
C        -4.69898009    -0.70452289     0.22179822     0.00070468     0.00021923     0.00023764
H        -6.44509273     0.12313510    -0.82157286    -0.00000637     0.00128286    -0.00095409
H        -6.69821366    -1.55769139    -0.16757885    -0.00099090    -0.00024652     0.00007224
H        -4.30241287    -1.64770312     0.59023587     0.00093489    -0.00068468    -0.00015911
C        -3.93098093     0.39071368     0.00989985    -0.00062808    -0.00007853    -0.00019653
C        -2.42516830     0.43921743     0.27778058     0.00024583    -0.00001511     0.00025953
H        -4.30205249     1.29945316    -0.48020369    -0.00017419     0.00155649    -0.00081498
H        -1.91516871    -0.41938249     0.73799066     0.00117248     0.00072946    -0.00036203
C        -1.88431665     1.59966823    -0.05999848     0.00015017     0.00002006     0.00004718
H        -2.43740873     2.46327559    -0.54570985     0.00008845    -0.00002336     0.00021698
N        -0.53183795     1.89949701     0.19221986    -0.00000809     0.00003341     0.00006993
H        -0.14037165     2.72935089    -0.23596154     0.00036794     0.00049084    -0.00071237
H         0.06928159     1.16790093     0.47131430     0.00008474    -0.00176921    -0.00097109
    14
  Step:    14            Position(A)                                  Velocity(au)
C        -6.06743453    -0.71392453    -0.21637741    -0.00057359    -0.00027626    -0.00013298
C        -4.69145134    -0.70221626     0.22434605     0.00066625     0.00019735     0.00022793
H        -6.44501415     0.13702944    -0.83148147     0.00003311     0.00121415    -0.00083179
H        -6.70961046    -1.56145541    -0.16637449    -0.00108305    -0.00042749     0.00014579
H        -4.29190588    -1.65504829     0.58892064     0.00097656    -0.00063039    -0.00009051
C        -3.93769820     0.38987088     0.00773173    -0.00059536    -0.00006928    -0.00020120
C        -2.42278653     0.43879749     0.28068211     0.00018747    -0.00005955     0.00026929
H        -4.30424249     1.31618330    -0.48876048    -0.00021355     0.00145494    -0.00072567
H        -1.90241274    -0.41086952     0.73383297     0.00115996     0.00080981    -0.00038939
C        -1.88225056     1.60034531    -0.05955466     0.00022698     0.00010303     0.00003437
H        -2.43597399     2.46155400    -0.54253448     0.00016973    -0.00028495     0.00036031
N        -0.53216806     1.89990817     0.19289239    -0.00004753     0.00003996     0.00005331
H        -0.13604694     2.73481144    -0.24364455     0.00040592     0.00046778    -0.00067241
H         0.07143292     1.14742890     0.46126681     0.00026345    -0.00191136    -0.00088946
    14
  Step:    15            Position(A)                                  Velocity(au)
C        -6.07362609    -0.71681993    -0.21790649    -0.00055738    -0.00025183    -0.00014697
C        -4.68440467    -0.70020556     0.22678462     0.00061696     0.00016528     0.00021778
H        -6.44436843     0.14969702    -0.83976990     0.00009294     0.00106663    -0.00066382
H        -6.72190748    -1.56704359    -0.16438930    -0.00115000    -0.00057232     0.00021423
H        -4.28104884    -1.66149400     0.58825568     0.00099907    -0.00052318    -0.00003931
C        -3.94400552     0.38919799     0.00549817    -0.00055326    -0.00004809    -0.00020818
C        -2.42106701     0.43791460     0.28367191     0.00012559    -0.00009848     0.00027533
H        -4.30672429     1.33128274    -0.49607914    -0.00023060     0.00126700    -0.00059348
H        -1.88979240    -0.40166642     0.72947207     0.00114888     0.00085312    -0.00039824
C        -1.87935095     1.60192231    -0.05924664     0.00030193     0.00018270     0.00002295
H        -2.43369556     2.45704172    -0.53782743     0.00023884    -0.00052501     0.00049254
N        -0.53287786     1.90037121     0.19338604    -0.00007706     0.00004224     0.00003738
H        -0.13149131     2.73958457    -0.25067177     0.00041172     0.00037032    -0.00059483
H         0.07504504     1.12608626     0.45185571     0.00034829    -0.00192288    -0.00085383
    14
  Step:    16            Position(A)                                  Velocity(au)
C        -6.07962825    -0.71943383    -0.21959274    -0.00053922    -0.00022600    -0.00016123
C        -4.67795407    -0.69860038     0.22911033     0.00055771     0.00012372     0.00020730
H        -6.44298087     0.16036402    -0.84600383     0.00016458     0.00085714    -0.00046242
H        -6.73476894    -1.57397603    -0.16168770    -0.00118261    -0.00066827     0.00027613
H        -4.27004930    -1.66649388     0.58806075     0.00100340    -0.00037074    -0.00000309
C        -3.94980188     0.38881876     0.00317748    -0.00050222    -0.00001651    -0.00021675
C        -2.42003909     0.43664313     0.28670546     0.00006186    -0.00012957     0.00027706
H        -4.30928738     1.34390140    -0.50174404    -0.00023147     0.00101105    -0.00042862
H        -1.87727889    -0.39220591     0.72512066     0.00114087     0.00085595    -0.00038752
C        -1.87564519     1.60434230    -0.05905262     0.00037377     0.00025538     0.00001408
H        -2.43074887     2.45006842    -0.53175921     0.00028808    -0.00072648     0.00060484
N        -0.53385384     1.90083233     0.19371012    -0.00009635     0.00003946     0.00002234
H        -0.12703984     2.74291284    -0.25665759     0.00038978     0.00021156    -0.00048587
H         0.07905240     1.10536232     0.44258766     0.00033951    -0.00180231    -0.00085926
    14
  Step:    17            Position(A)                                  Velocity(au)
C        -6.08542253    -0.72176402    -0.22143362    -0.00051942    -0.00020090    -0.00017477
C        -4.67220364    -0.69749886     0.23131975     0.00048948     0.00007404     0.00019643
H        -6.44076793     0.16844862    -0.84988621     0.00024013     0.00060324    -0.00023991
H        -6.74777924    -1.58166332    -0.15834838    -0.00117575    -0.00070838     0.00033035
H        -4.25909760    -1.66960469     0.58818800     0.00099152    -0.00018360     0.00002143
C        -3.95499256     0.38883678     0.00075627    -0.00044302     0.00002338    -0.00022614
C        -2.41971377     0.43508004     0.28973304    -0.00000204    -0.00015109     0.00027414
H        -4.31178806     1.35340146    -0.50545601    -0.00022194     0.00070661    -0.00024174
H        -1.86483362    -0.38294098     0.72099426     0.00113588     0.00081819    -0.00035793
C        -1.87117405     1.60750928    -0.05893862     0.00044133     0.00031774     0.00000879
H        -2.42739325     2.44114847    -0.52459549     0.00030994    -0.00087317     0.00068886
N        -0.53498580     1.90123441     0.19387483    -0.00010611     0.00003164     0.00000824
H        -0.12296421     2.74421281    -0.26130121     0.00034675     0.00000899    -0.00035417
H         0.08247251     1.08665717     0.43305777     0.00024922    -0.00156427    -0.00089619
    14
  Step:    18            Position(A)                                  Velocity(au)
C        -6.09099164    -0.72382882    -0.22341621    -0.00049795    -0.00017818    -0.00018669
C        -4.66724574    -0.69698067     0.23340750     0.00041346     0.00001821     0.00018489
H        -6.43772748     0.17356113    -0.85125224     0.00031259     0.00032237    -0.00000814
H        -6.76049070    -1.58947324    -0.15446064    -0.00112847    -0.00069141     0.00037611
H        -4.24835792    -1.67051052     0.58852957     0.00096608     0.00002597     0.00003807
C        -3.95949372     0.38933017    -0.00176973    -0.00037681     0.00006901    -0.00023546
C        -2.42008379     0.43333773     0.29270285    -0.00006448    -0.00016202     0.00026654
H        -4.31414277     1.35935978    -0.50703257    -0.00020725     0.00037317    -0.00004335
H        -1.85242930    -0.37430634     0.71729032     0.00113170     0.00074346    -0.00031206
C        -1.86599014     1.61129342    -0.05886022     0.00050359     0.00036701     0.00000792
H        -2.42396844     2.43096618    -0.51668912     0.00029754    -0.00095080     0.00073734
N        -0.53617524     1.90152453     0.19389038    -0.00010757     0.00001937    -0.00000491
H        -0.11945393     2.74310956    -0.26440584     0.00029071    -0.00021750    -0.00020971
H         0.08450448     1.07114094     0.42298178     0.00009617    -0.00123323    -0.00095332
    14
  Step:    19            Position(A)                                  Velocity(au)
C        -6.09631603    -0.72566203    -0.22551773    -0.00047447    -0.00015907    -0.00019609
C        -4.66315835    -0.69710046     0.23536458     0.00033110    -0.00004122     0.00017231
H        -6.43392932     0.17550118    -0.85006434     0.00037574     0.00003181     0.00022139
H        -6.77246662    -1.59678924    -0.15012022    -0.00104338    -0.00062096     0.00041303
H        -4.23796275    -1.66903663     0.58902077     0.00093017     0.00024472     0.00005081
C        -3.96323598     0.39034653    -0.00439488    -0.00030506     0.00011740    -0.00024378
C        -2.42112433     0.43153561     0.29556421    -0.00012388    -0.00016209     0.00025451
H        -4.31632211     1.36156529    -0.50640429    -0.00019219     0.00003012     0.00015633
H        -1.84007554    -0.36667641     0.71416729     0.00112380     0.00063892    -0.00025430
C        -1.86015714     1.61553822    -0.05876531     0.00055950     0.00040121     0.00001198
H        -2.42088397     2.42034797    -0.50846476     0.00024584    -0.00094901     0.00074515
N        -0.53733900     1.90165813     0.19376732    -0.00010216     0.00000347    -0.00001705
H        -0.11660447     2.73945448    -0.26588901     0.00023052    -0.00044702    -0.00006308
H         0.08457648     1.05967791     0.41220205    -0.00009812    -0.00083843    -0.00101949
    14
  Step:    20            Position(A)                                  Velocity(au)
C        -6.10137167    -0.72730877    -0.22770616    -0.00044854    -0.00014448    -0.00020218
C        -4.66000237    -0.69788248     0.23717702     0.00024404    -0.00010132     0.00015818
H        -6.42950755     0.17425694    -0.84640890     0.00042393    -0.00025112     0.00043739
H        -6.78331669    -1.60305795    -0.14542489    -0.00092589    -0.00050435     0.00044112
H        -4.22800858    -1.66515673     0.58964109     0.00088724     0.00045904     0.00006367
C        -3.96616738     0.39189846    -0.00710286    -0.00022942     0.00016518    -0.00025008
C        -2.42279380     0.42979181     0.29827068    -0.00017876    -0.00015173     0.00023853
H        -4.31834736     1.36001881    -0.50361247    -0.00018138    -0.00030298     0.00034720
H        -1.82784412    -0.36032872     0.71172699     0.00110562     0.00051455    -0.00019031
C        -1.85375009     1.62007058    -0.05859817     0.00060794     0.00041937     0.00002105
H        -2.41859031     2.41020471    -0.50038756     0.00015323    -0.00086388     0.00071064
N        -0.53841029     1.90160042     0.19351744    -0.00009140    -0.00001513    -0.00002800