     6
  Step:     0            Position(A)                                  Velocity(au)
C        -0.04203145     0.01671923     0.00803563    -0.00004266     0.00004540     0.00006047
N        -0.04453140    -0.05516907     1.30637797    -0.00002010     0.00010682    -0.00013359
H         0.91244326    -0.01732824    -0.50035343     0.00002869    -0.00036075    -0.00022453
H         0.89393876    -0.10657905     1.88764101     0.00012904    -0.00061008     0.00066643
H        -0.91971525    -0.06919877     1.79583019     0.00010732    -0.00062126     0.00011877
H        -0.97993116     0.09074957    -0.54071751     0.00052262    -0.00043330     0.00057522
     6
  Step:     1            Position(A)                                  Velocity(au)
C        -0.04226140     0.01697232     0.00829362    -0.00004079     0.00004716     0.00003368
N        -0.04457947    -0.05459141     1.30574976     0.00000266     0.00010448    -0.00009557
H         0.91286144    -0.01931640    -0.50191739     0.00012207    -0.00036662    -0.00034583
H         0.89399401    -0.10987077     1.89096607    -0.00011115    -0.00059356     0.00054712
H        -0.91944341    -0.07262732     1.79683259    -0.00000689    -0.00063338     0.00024678
H        -0.97726831     0.08841492    -0.53782519     0.00044512    -0.00042027     0.00047866
     6
  Step:     2            Position(A)                                  Velocity(au)
C        -0.04247753     0.01723494     0.00840394    -0.00003766     0.00004894     0.00000653
N        -0.04450233    -0.05402654     1.30533290     0.00002546     0.00010227    -0.00005648
H         0.91377816    -0.02133743    -0.50413524     0.00021022    -0.00037313    -0.00046354
H         0.89272323    -0.11306989     1.89362400    -0.00035442    -0.00057693     0.00042413
H        -0.91979059    -0.07612510     1.79852884    -0.00011719    -0.00064721     0.00037156
H        -0.97506351     0.08615367    -0.53548309     0.00035642    -0.00040700     0.00037494
     6
  Step:     3            Position(A)                                  Velocity(au)
C        -0.04267304     0.01750720     0.00836504    -0.00003332     0.00005073    -0.00002088
N        -0.04430123    -0.05347370     1.30513242     0.00004782     0.00010019    -0.00001654
H         0.91515910    -0.02339459    -0.50698369     0.00029133    -0.00038020    -0.00057662
H         0.89012035    -0.11617638     1.89560159    -0.00059737    -0.00056037     0.00029970
H        -0.92072425    -0.07970098     1.80089360    -0.00021988    -0.00066257     0.00049063
H        -0.97337276     0.08396663    -0.53372727     0.00025839    -0.00039364     0.00026505
     6
  Step:     4            Position(A)                                  Velocity(au)
C        -0.04284148     0.01778913     0.00817581    -0.00002784     0.00005253    -0.00004848
N        -0.04397994    -0.05293211     1.30515219     0.00006929     0.00009825     0.00002403
H         0.91696059    -0.02549064    -0.51043403     0.00036375    -0.00038769    -0.00068405
H         0.88619769    -0.11919122     1.89689790    -0.00083651    -0.00054403     0.00017612
H        -0.92219246    -0.08336279     1.80388837    -0.00031156    -0.00067918     0.00060162
H        -0.97224088     0.08185365    -0.53258771     0.00015322    -0.00038035     0.00015020
     6
  Step:     5            Position(A)                                  Velocity(au)
C        -0.04297699     0.01808072     0.00783566    -0.00002135     0.00005430    -0.00007615
N        -0.04354471    -0.05240093     1.30539475     0.00008940     0.00009645     0.00006494
H         0.91913075    -0.02762760    -0.51445253     0.00042605    -0.00039543    -0.00078490
H         0.88098690    -0.12211641     1.89752459    -0.00106802    -0.00052809     0.00005580
H        -0.92412607    -0.08711667     1.80746247    -0.00038930    -0.00069668     0.00070236
H        -0.97169987     0.07981378    -0.53208730     0.00004336    -0.00036724     0.00003178
     6
  Step:     6            Position(A)                                  Velocity(au)
C        -0.04307451     0.01838183     0.00734463    -0.00001401     0.00005604    -0.00010375
N        -0.04300419    -0.05187936     1.30586099     0.00010771     0.00009479     0.00010585
H         0.92161067    -0.02980658    -0.51900076     0.00047700    -0.00040323    -0.00087825
H         0.87454081    -0.12495501     1.89750696    -0.00128766    -0.00051275    -0.00005858
H        -0.92644142    -0.09096667     1.81155427    -0.00045063    -0.00071460     0.00079090
H        -0.97176760     0.07784542    -0.53224087    -0.00006844    -0.00035442    -0.00008862
     6
  Step:     7            Position(A)                                  Velocity(au)
C        -0.04312991     0.01869224     0.00670353    -0.00000602     0.00005771    -0.00013110
N        -0.04236944    -0.05136661     1.30654974     0.00012375     0.00009325     0.00014631
H         0.92433566    -0.03202760    -0.52403582     0.00051562    -0.00041086    -0.00096324
H         0.86693616    -0.12771144     1.89688542    -0.00149063    -0.00049828    -0.00016403
H        -0.92904328    -0.09491430     1.81609267    -0.00049371    -0.00073243     0.00086560
H        -0.97244667     0.07594641    -0.53305427    -0.00017928    -0.00034196    -0.00020921
     6
  Step:     8            Position(A)                                  Velocity(au)
C        -0.04314016     0.01901153     0.00591416     0.00000242     0.00005928    -0.00015799
N        -0.04165393    -0.05086191     1.30745736     0.00013709     0.00009184     0.00018580
H         0.92723652    -0.03428947    -0.52951062     0.00054117    -0.00041808    -0.00103907
H         0.85827662    -0.13039171     1.89571722    -0.00167158    -0.00048501    -0.00025724
H        -0.93182826    -0.09895820     1.82099879    -0.00051731    -0.00074961     0.00092514
H        -0.97372370     0.07411426    -0.53452352    -0.00028615    -0.00032992    -0.00032808
     6
  Step:     9            Position(A)                                  Velocity(au)
C        -0.04310347     0.01933912     0.00497949     0.00001107     0.00006071    -0.00018417
N        -0.04087355    -0.05036446     1.30857721     0.00014726     0.00009056     0.00022372
H         0.93024097    -0.03658967    -0.53537419     0.00055322    -0.00042463    -0.00110502
H         0.84869583    -0.13300392     1.89407837    -0.00182467    -0.00047338    -0.00033456
H        -0.93468820    -0.10309404     1.82618783    -0.00052088    -0.00076556     0.00096860
H        -0.97556914     0.07234626    -0.53663427    -0.00038606    -0.00031833    -0.00044324
     6
  Step:    10            Position(A)                                  Velocity(au)
C        -0.04301928     0.01967423     0.00390390     0.00001971     0.00006197    -0.00020935
N        -0.04004652    -0.04987344     1.30989926     0.00015386     0.00008943     0.00025939
H         0.93327501    -0.03892438    -0.54157209     0.00055156    -0.00043028    -0.00116047
H         0.83836006    -0.13555877     1.89206539    -0.00194380    -0.00046391    -0.00039216
H        -0.93751380    -0.10731444     1.83157118    -0.00050453    -0.00077975     0.00099545
H        -0.97793766     0.07063959    -0.53936152    -0.00047620    -0.00030720    -0.00055270
     6
  Step:    11            Position(A)                                  Velocity(au)
C        -0.04288827     0.02001586     0.00269328     0.00002810     0.00006302    -0.00023325
N        -0.03919330    -0.04938789     1.31140983     0.00015651     0.00008847     0.00029213
H         0.93626421    -0.04128845    -0.54804691     0.00053630    -0.00043481    -0.00120497
H         0.82746891    -0.13807001     1.88979588    -0.00202298    -0.00045722    -0.00042619
H        -0.94019785    -0.11160916     1.83705851    -0.00046899    -0.00079169     0.00100564
H        -0.98076938     0.06899149    -0.54266990    -0.00055403    -0.00029653    -0.00065458
     6
  Step:    12            Position(A)                                  Velocity(au)
C        -0.04271226     0.02036282     0.00135513     0.00003604     0.00006382    -0.00025557
N        -0.03833631    -0.04890674     1.31309144     0.00015489     0.00008771     0.00032126
H         0.93913532    -0.04367561    -0.55473912     0.00050785    -0.00043803    -0.00123826
H         0.81625446    -0.14055498     1.88740830    -0.00205671    -0.00045400    -0.00043308
H        -0.94263861    -0.11596546     1.84256010    -0.00041562    -0.00080100     0.00099955
H        -0.98399167     0.06739931    -0.54651428    -0.00061745    -0.00028630    -0.00074719
     6
  Step:    13            Position(A)                                  Velocity(au)
C        -0.04249412     0.02071372    -0.00010150     0.00004337     0.00006434    -0.00027603
N        -0.03749944    -0.04842867     1.31492303     0.00014882     0.00008722     0.00034617
H         0.94181786    -0.04607862    -0.56158813     0.00046691    -0.00043983    -0.00126033
H         0.80497734    -0.14303485     1.88505982    -0.00204062    -0.00045496    -0.00040988
H        -0.94474289    -0.12036859     1.84798923    -0.00034628    -0.00080740     0.00097800
H        -0.98752159     0.06586060    -0.55084096    -0.00066488    -0.00027649    -0.00082914
     6
  Step:    14            Position(A)                                  Velocity(au)
C        -0.04223755     0.02106703    -0.00166606     0.00004995     0.00006457    -0.00029441
N        -0.03670746    -0.04795213     1.31688036     0.00013823     0.00008702     0.00036638
H         0.94424568    -0.04848961    -0.56853362     0.00041445    -0.00044014    -0.00127143
H         0.79391964    -0.14553456     1.88292213    -0.00197190    -0.00046076    -0.00035459
H        -0.94642865    -0.12480255     1.85326448    -0.00026328    -0.00081078     0.00094226
H        -0.99126889     0.06437309    -0.55558927    -0.00069535    -0.00026707    -0.00089936
     6
  Step:    15            Position(A)                                  Velocity(au)
C        -0.04194689     0.02142111    -0.00332681     0.00005569     0.00006450    -0.00031053
N        -0.03598513    -0.04747532     1.31893678     0.00012323     0.00008718     0.00038155
H         0.94635826    -0.05090038    -0.57551680     0.00035164    -0.00043895    -0.00127202
H         0.78337492    -0.14808249     1.88117528    -0.00184991    -0.00047193    -0.00026656
H        -0.94762720    -0.12925078     1.85831186    -0.00016925    -0.00081115     0.00089392
H        -0.99513930     0.06293480    -0.56069355    -0.00070852    -0.00025801    -0.00095722
     6
  Step:    16            Position(A)                                  Velocity(au)
C        -0.04162687     0.02177425    -0.00507110     0.00006055     0.00006411    -0.00032427
N        -0.03535624    -0.04699617     1.32106418     0.00010411     0.00008773     0.00039156
H         0.94810153    -0.05330274    -0.58248161     0.00027977    -0.00043631    -0.00126280
H         0.77363496    -0.15070940     1.87999925    -0.00167652    -0.00048881    -0.00014679
H        -0.94828451    -0.13369702     1.86306648    -0.00006696    -0.00080869     0.00083482
H        -0.99903796     0.06154393    -0.56608535    -0.00070464    -0.00024928    -0.00100247
     6
  Step:    17            Position(A)                                  Velocity(au)
C        -0.04128233     0.02212475    -0.00688565     0.00006454     0.00006342    -0.00033557
N        -0.03484249    -0.04651250     1.32323414     0.00008138     0.00008869     0.00039648
H         0.94942865    -0.05568882    -0.58937583     0.00020019    -0.00043232    -0.00124458
H         0.76497528    -0.15344710     1.87956433    -0.00145628    -0.00051139     0.00000193
H        -0.94836212    -0.13812605     1.86747388     0.00004070    -0.00080366     0.00076699
H        -1.00287260     0.06019897    -0.57169557    -0.00068447    -0.00024084    -0.00103525
     6
  Step:    18            Position(A)                                  Velocity(au)
C        -0.04091803     0.02247090    -0.00875696     0.00006767     0.00006244    -0.00034442
N        -0.03446239    -0.04602204     1.32541906     0.00005570     0.00009005     0.00039658
H         0.95030036    -0.05805132    -0.59615191     0.00011430    -0.00042712    -0.00121832
H         0.75763941    -0.15632637     1.88002042    -0.00119641    -0.00053928     0.00017490
H        -0.94783742    -0.14252429     1.87149092     0.00015089    -0.00079643     0.00069253
H        -1.00655611     0.05889864    -0.57745632    -0.00064919    -0.00023263    -0.00105594
     6
  Step:    19            Position(A)                                  Velocity(au)
C        -0.04053850     0.02281108    -0.01067150     0.00007001     0.00006117    -0.00035085
N        -0.03423023    -0.04552263     1.32759329     0.00002793     0.00009179     0.00039230
H         0.95068506    -0.06038365    -0.60276746     0.00002349    -0.00042082    -0.00118494
H         0.75182449    -0.15937478     1.88148679    -0.00090643    -0.00057166     0.00036573
H        -0.94670352    -0.14688033     1.87508613     0.00026080    -0.00078741     0.00061357
H        -1.01000841     0.05764194    -0.58330233    -0.00060021    -0.00022460    -0.00106514
     6
  Step:    20            Position(A)                                  Velocity(au)
C        -0.04014793     0.02314371    -0.01261598     0.00007164     0.00005962    -0.00035489
N        -0.03415523    -0.04501237     1.32973401    -0.00000097     0.00009384     0.00038421
H         0.95055873    -0.06268002    -0.60918528    -0.00007089    -0.00041356    -0.00114539
H         0.74766939    -0.16261415     1.88404319    -0.00059779    -0.00060725     0.00056662
H        -0.94496880    -0.15118514     1.87823973     0.00036776    -0.00077704     0.00053218
H        -1.01315792     0.05642820    -0.58917193    -0.00053919    -0.00021670    -0.00106359
     6
  Step:    21            Position(A)                                  Velocity(au)
C        -0.03975006     0.02346729    -0.01457737     0.00007263     0.00005782    -0.00035661
N        -0.03424095    -0.04448983     1.33182182    -0.00002995     0.00009610     0.00037297
H         0.94990484    -0.06493514    -0.61537330    -0.00016753    -0.00040544    -0.00110050
H         0.74524538    -0.16605806     1.88772281    -0.00028291    -0.00064441     0.00076881
H        -0.94265602    -0.15543218     1.88094314     0.00046917    -0.00076573     0.00045035
H        -1.01594263     0.05525704    -0.59500786    -0.00046789    -0.00020882    -0.00105206
     6
  Step:    22            Position(A)                                  Velocity(au)
C        -0.03934817     0.02378039    -0.01654301     0.00007305     0.00005575    -0.00035606
N        -0.03448509    -0.04395410     1.33384111    -0.00005796     0.00009846     0.00035923
H         0.94871393    -0.06714469    -0.62130404    -0.00026511    -0.00039659    -0.00105105
H         0.74455402    -0.16971041     1.89250931     0.00002560    -0.00068122     0.00096327
H        -0.93980230    -0.15961742     1.88319894     0.00056250    -0.00075393     0.00037002
H        -1.01831031     0.05412867    -0.60075725    -0.00038809    -0.00020086    -0.00103135
     6
  Step:    23            Position(A)                                  Velocity(au)
C        -0.03894512     0.02408162    -0.01850056     0.00007300     0.00005345    -0.00035327
N        -0.03487955    -0.04340496     1.33577993    -0.00008397     0.00010079     0.00034364
H         0.94698372    -0.06930491    -0.62695421    -0.00036233    -0.00038711    -0.00099775
H         0.74552742    -0.17356399     1.89833646     0.00031564    -0.00071560     0.00114123
H        -0.93645820    -0.16373927     1.88502017     0.00064537    -0.00074203     0.00029304
H        -1.02021879     0.05304388    -0.60637169    -0.00030163    -0.00019271    -0.00100223
     6
  Step:    24            Position(A)                                  Velocity(au)
C        -0.03854338     0.02436964    -0.02043790     0.00007252     0.00005090    -0.00034829
N        -0.03541087    -0.04284289     1.33762981    -0.00010708     0.00010296     0.00032678
H         0.94471918    -0.07141262    -0.63230443    -0.00045782    -0.00037708    -0.00094127
H         0.74803398    -0.17760005     1.90509157     0.00057654    -0.00074551     0.00129486
H        -0.93268695    -0.16779843     1.88642974     0.00071557    -0.00073042     0.00022113
H        -1.02163581     0.05200403    -0.61180701    -0.00021030    -0.00018425    -0.00096545
     6
  Step:    25            Position(A)                                  Velocity(au)
C        -0.03814507     0.02464317    -0.02234316     0.00007167     0.00004812    -0.00034116
N        -0.03606098    -0.04226904     1.33938519    -0.00012656     0.00010486     0.00030912
H         0.94193270    -0.07346511    -0.63733903    -0.00055020    -0.00036659    -0.00088231
H         0.75188822    -0.18178901     1.91262231     0.00079970    -0.00076911     0.00141782
H        -0.92856346    -0.17179786     1.88745987     0.00077111    -0.00071951     0.00015592
H        -1.02253902     0.05101106    -0.61702332    -0.00011594    -0.00017539    -0.00092182
     6
  Step:    26            Position(A)                                  Velocity(au)
C        -0.03775207     0.02490099    -0.02420468     0.00007050     0.00004514    -0.00033194
N        -0.03680819    -0.04168512     1.34104288    -0.00014184     0.00010640     0.00029106
H         0.93864431    -0.07546025    -0.64204614    -0.00063808    -0.00035578    -0.00082159
H         0.75686363    -0.18609189     1.92074602     0.00097903    -0.00078491     0.00150566
H        -0.92417297    -0.17574273     1.88815126     0.00081032    -0.00070972     0.00009884
H        -1.02291596     0.05006746    -0.62198504    -0.00002035    -0.00016604    -0.00087218
     6
  Step:    27            Position(A)                                  Velocity(au)
C        -0.03736600     0.02514197    -0.02601118     0.00006905     0.00004196    -0.00032072
N        -0.03762832    -0.04109327     1.34260151    -0.00015260     0.00010753     0.00027288
H         0.93488165    -0.07739659    -0.64641789    -0.00072012    -0.00034478    -0.00075991
H         0.76270683    -0.19046258     1.92926040     0.00111111    -0.00079192     0.00155597
H        -0.91960911    -0.17964053     1.88855211     0.00083196    -0.00070147     0.00005113
H        -1.02276387     0.04917620    -0.62666122     0.00007474    -0.00015614    -0.00081743
     6
  Step:    28            Position(A)                                  Velocity(au)
C        -0.03698833     0.02536511    -0.02775189     0.00006736     0.00003863    -0.00030764
N        -0.03849591    -0.04049583     1.34406093    -0.00015873     0.00010823     0.00025478
H         0.93067977    -0.07927354    -0.65045082    -0.00079506    -0.00033379    -0.00069814
H         0.76915259    -0.19485057     1.93795512     0.00119522    -0.00078966     0.00156844
H        -0.91497142    -0.18350107     1.88871673     0.00083534    -0.00069523     0.00001370
H        -1.02208938     0.04834059    -0.63102586     0.00016766    -0.00014563    -0.00075857
     6
  Step:    29            Position(A)                                  Velocity(au)
C        -0.03662034     0.02556954    -0.02941672     0.00006397     0.00003679    -0.00033187
N        -0.03938546    -0.03989515     1.34542184    -0.00015988     0.00010852     0.00026659
H         0.92608054    -0.08109159    -0.65414617    -0.00088454    -0.00038640    -0.00060018
H         0.77593764    -0.19920392     1.94662267     0.00122724    -0.00071445     0.00154575
H        -0.91036208    -0.18733650     1.88870375     0.00083277    -0.00077187    -0.00003473
H        -1.02090788     0.04756415    -0.63505837     0.00028410    -0.00007378    -0.00066086
     6
  Step:    30            Position(A)                                  Velocity(au)
C        -0.03627964     0.02577273    -0.03142876     0.00005914     0.00003676    -0.00039879
N        -0.04026727    -0.03929347     1.34701454    -0.00015653     0.00010791     0.00031336
H         0.92087973    -0.08355454    -0.65710036    -0.00098704    -0.00048674    -0.00046415
H         0.78274944    -0.20276615     1.95508086     0.00120792    -0.00058319     0.00148141
H        -0.90574491    -0.19205280     1.88833200     0.00082678    -0.00091061    -0.00009688
H        -1.01894177     0.04752321    -0.63834768     0.00042284     0.00004298    -0.00052290
     6
  Step:    31            Position(A)                                  Velocity(au)
C        -0.03596458     0.02597717    -0.03383891     0.00005437     0.00003694    -0.00046960
N        -0.04112118    -0.03869855     1.34889669    -0.00014950     0.00010631     0.00036575
H         0.91513522    -0.08648904    -0.65929318    -0.00107659    -0.00056430    -0.00032854
H         0.78933227    -0.20567097     1.96305013     0.00114710    -0.00046801     0.00137537
H        -0.90119388    -0.19743432     1.88762946     0.00080498    -0.00102164    -0.00015135
H        -1.01621900     0.04804079    -0.64085685     0.00055416     0.00013653    -0.00038229
     6
  Step:    32            Position(A)                                  Velocity(au)
C        -0.03567620     0.02618270    -0.03664109     0.00004938     0.00003704    -0.00053765
N        -0.04192660    -0.03811351     1.35107421    -0.00013895     0.00010428     0.00041771
H         0.90893017    -0.08981790    -0.66074697    -0.00114969    -0.00063000    -0.00019892
H         0.79548155    -0.20796081     1.97034665     0.00105305    -0.00035911     0.00124048
H        -0.89681013    -0.20339248     1.88665215     0.00076461    -0.00111929    -0.00019491
H        -1.01279091     0.04903856    -0.64259086     0.00067452     0.00021795    -0.00024456
     6
  Step:    33            Position(A)                                  Velocity(au)
C        -0.03541599     0.02638864    -0.03981235     0.00004412     0.00003699    -0.00060057
N        -0.04266493    -0.03753994     1.35353753    -0.00012531     0.00010206     0.00046703
H         0.90236190    -0.09348849    -0.66150328    -0.00120412    -0.00068732    -0.00007839
H         0.80103194    -0.20966077     1.97683221     0.00093282    -0.00025446     0.00108441
H        -0.89269882    -0.20986997     1.88546395     0.00070572    -0.00120789    -0.00022670
H        -1.00872495     0.05046224    -0.64357403     0.00078124     0.00029055    -0.00011286
     6
  Step:    34            Position(A)                                  Velocity(au)
C        -0.03518551     0.02659412    -0.04332010     0.00003861     0.00003680    -0.00065697
N        -0.04332024    -0.03697844     1.35626809    -0.00010912     0.00009982     0.00051241
H         0.89553891    -0.09746168    -0.66161876    -0.00123821    -0.00073840     0.00003059
H         0.80585559    -0.21079073     1.98240657     0.00079306    -0.00015354     0.00091371
H        -0.88896165    -0.21682572     1.88413093     0.00062953    -0.00128986    -0.00024674
H        -1.00410263     0.05226985    -0.64384604     0.00087203     0.00035620     0.00001026
     6
  Step:    35            Position(A)                                  Velocity(au)
C        -0.03498624     0.02679828    -0.04712559     0.00003286     0.00003647    -0.00070604
N        -0.04387967    -0.03642878     1.35924161    -0.00009096     0.00009768     0.00055310
H         0.88857843    -0.10170823    -0.66116275    -0.00125079    -0.00078498     0.00012601
H         0.80986014    -0.21136999     1.98700342     0.00064005    -0.00005640     0.00073428
H        -0.88569107    -0.22422846     1.88271732     0.00053822    -0.00136683    -0.00025573
H        -0.99901767     0.05442737    -0.64345981     0.00094501     0.00041621     0.00012264
     6
  Step:    36            Position(A)                                  Velocity(au)
C        -0.03481941     0.02700043    -0.05118642     0.00002694     0.00003603    -0.00074740
N        -0.04433368    -0.03589012     1.36243040    -0.00007144     0.00009577     0.00058871
H         0.88160333    -0.10620740    -0.66021488    -0.00124125    -0.00082852     0.00020630
H         0.81298666    -0.21141907     1.99058749     0.00047961     0.00003670     0.00055142
H        -0.88296518    -0.23205409     1.88128179     0.00043472    -0.00144006    -0.00025496
H        -0.99357389     0.05690696    -0.64247971     0.00099863     0.00047167     0.00022243
     6
  Step:    37            Position(A)                                  Velocity(au)
C        -0.03468584     0.02720002    -0.05545862     0.00002093     0.00003553    -0.00078101
N        -0.04467618    -0.03536102     1.36580532    -0.00005118     0.00009417     0.00061919
H         0.87473934    -0.11094563    -0.65886270    -0.00120945    -0.00087041     0.00027036
H         0.81520750    -0.21096080     1.99315141     0.00031704     0.00012541     0.00036978
H        -0.88084427    -0.24028407     1.87987465     0.00032250    -0.00151057    -0.00024621
H        -0.98788362     0.05968612    -0.64097986     0.00103172     0.00052358     0.00030818
     6
  Step:    38            Position(A)                                  Velocity(au)
C        -0.03458592     0.02739677    -0.05989855     0.00001491     0.00003501    -0.00080714
N        -0.04490459    -0.03483968     1.36933742    -0.00003079     0.00009295     0.00064475
H         0.86811203    -0.11591670    -0.65719905    -0.00115576    -0.00091200     0.00031760
H         0.81652316    -0.21002016     1.99471233     0.00015698     0.00020946     0.00019332
H        -0.87936773    -0.24890431     1.87853540     0.00020539    -0.00157920    -0.00023154
H        -0.98206512     0.06274746    -0.63904197     0.00104354     0.00057291     0.00037883
     6
  Step:    39            Position(A)                                  Velocity(au)
C        -0.03451946     0.02759068    -0.06446439     0.00000899     0.00003452    -0.00082622
N        -0.04501970    -0.03432396     1.37299923    -0.00001083     0.00009215     0.00066576
H         0.86184371    -0.12112137    -0.65531899    -0.00108101    -0.00095456     0.00034793
H         0.81695901    -0.20862374     1.99530843     0.00000352     0.00028865     0.00002538
H        -0.87855255    -0.25790431     1.87729124     0.00008734    -0.00164658    -0.00021321
H        -0.97624016     0.06607851    -0.63675297     0.00103363     0.00062061     0.00043369
     6
  Step:    40            Position(A)                                  Velocity(au)
C        -0.03448565     0.02778197    -0.06911715     0.00000327     0.00003410    -0.00083882
N        -0.04502548    -0.03381156     1.37676559     0.00000814     0.00009179     0.00068264
H         0.85605069    -0.12656716    -0.65331701    -0.00098636    -0.00099922     0.00036169
H         0.81656244    -0.20679956     1.99499545    -0.00013976     0.00036283    -0.00013131
H        -0.87839324    -0.26727607     1.87615647    -0.00002780    -0.00171305    -0.00019351
H        -0.97053235     0.06967196    -0.63420309     0.00100178     0.00066759     0.00047235
     6
  Step:    41            Position(A)                                  Velocity(au)
C        -0.03448298     0.02797105    -0.07382117    -0.00000211     0.00003377    -0.00084548
N        -0.04492885    -0.03330010     1.38061388     0.00002566     0.00009186     0.00069583
H         0.85084122    -0.13226730    -0.65128442    -0.00087330    -0.00104687     0.00035963
H         0.81540008    -0.20457647     1.99384371    -0.00026964     0.00043191    -0.00027441
H        -0.87886267    -0.27701279     1.87513274    -0.00013638    -0.00177861    -0.00017457
H        -0.96506566     0.07352527    -0.63148402     0.00094797     0.00071466     0.00049472
     6
  Step:    42            Position(A)                                  Velocity(au)
C        -0.03450923     0.02815844    -0.07854411    -0.00000703     0.00003353    -0.00084670
N        -0.04473939    -0.03278730     1.38452391     0.00004125     0.00009234     0.00070563
H         0.84631362    -0.13823952    -0.64930718    -0.00074370    -0.00109804     0.00034289
H         0.81355598    -0.20198391     1.99193585    -0.00038318     0.00049572    -0.00040188
H        -0.87991388    -0.28710715     1.87421009    -0.00023502    -0.00184284    -0.00015832
H        -0.95996273     0.07764023    -0.62868707     0.00087245     0.00076244     0.00050094
     6
  Step:    43            Position(A)                                  Velocity(au)
C        -0.03456133     0.02834472    -0.08325661    -0.00001133     0.00003339    -0.00084286
N        -0.04446916    -0.03227110     1.38847728     0.00005450     0.00009315     0.00071223
H         0.84255359    -0.14450372    -0.64746330    -0.00059991    -0.00115287     0.00031300
H         0.81112996    -0.19905223     1.98936520    -0.00047756     0.00055405    -0.00051186
H        -0.88148172    -0.29754912     1.87336847    -0.00032067    -0.00190494    -0.00014639
H        -0.95534322     0.08202180    -0.62590162     0.00077581     0.00081138     0.00049142
     6
  Step:    44            Position(A)                                  Velocity(au)
C        -0.03463540     0.02853036    -0.08793180    -0.00001486     0.00003332    -0.00083432
N        -0.04413240    -0.03174979     1.39245667     0.00006501     0.00009423     0.00071571
H         0.83963190    -0.15108001    -0.64582108    -0.00044480    -0.00121109     0.00027180
H         0.80823701    -0.19581295     1.98623488    -0.00055002     0.00060659    -0.00060254
H        -0.88348547    -0.30832407     1.87257957    -0.00039071    -0.00196375    -0.00014008
H        -0.95132192     0.08667726    -0.62321370     0.00065912     0.00086170     0.00046687
     6