|===============================================================================
|
|  DFTB+ release 20.1
|
|  Copyright (C) 2006 - 2020  DFTB+ developers group
|
|===============================================================================
|
|  When publishing results obtained with DFTB+, please cite the following
|  reference:
|
|  * DFTB+, a software package for efficient approximate density functional
|    theory based atomistic simulations, J. Chem. Phys. 152, 124101 (2020).
|    [doi: 10.1063/1.5143190]
|
|  You should also cite additional publications crediting the parametrization
|  data you use. Please consult the documentation of the SK-files for the
|  references.
|
|===============================================================================

Reading input file 'dftb_in.hsd'
Parser version: 8

--------------------------------------------------------------------------------
Reading SK-files:
Done.


Processed input in HSD format written to 'dftb_pin.hsd'

Starting initialization...
--------------------------------------------------------------------------------
OpenMP threads:              1
Chosen random seed:          500966571
Mode:                        Static calculation
Self consistent charges:     Yes
SCC-tolerance:                 0.100000E-05
Max. scc iterations:                   1000
Shell resolved Hubbard:      No
Spin polarisation:           No
Nr. of up electrons:            16.000000
Nr. of down electrons:          16.000000
Periodic boundaries:         No
Electronic solver:           Relatively robust
Maximal SCC-cycles:                    1000
Initial charges:             Set automatically (system chrg:   0.100E+01)
Included shells:             C:  s, p
                             H:  s
                             N:  s, p
Spin coupling constants:     C   1(s)-1(s):  -0.455900E-01
                             C   1(s)-2(p):  -0.293000E-01
                             C   2(p)-1(s):  -0.293000E-01
                             C   2(p)-2(p):  -0.275500E-01
                             H   1(s)-1(s):  -0.792500E-01
                             N   1(s)-1(s):  -0.468700E-01
                             N   1(s)-2(p):  -0.317000E-01
                             N   2(p)-1(s):  -0.317000E-01
                             N   2(p)-2(p):  -0.307200E-01
Range separated hybrid:      Yes
  Screening parameter omega:   0.300000E+00
  Range separated algorithm:   MatrixBased
Extra options:
                             Mulliken analysis
                             Force calculation
Force type                   original
                             Eigenvector printing


REKS Calcuation:             Yes
SSR(2,2) Calcuation:         Yes
Energy Functional:           (PPS+OSS)/2
Number of Core Orbitals:                 15
Number of Active Orbitals:                2
Number of Basis:                         32
Number of States:                         2
State-Averaging Weight:          0.500000
                                 0.500000
State of Interest:                        1
Initial Guess:               Diagonalize H0 matrix
Newton-Raphson for FON opt:  Yes
NR max. Iterations:                      50
Level Shifting:              Yes
Shift Value:                     0.300000
W Scale Factor:              C  =    3.200000
                             H  =    3.200000
                             N  =    3.200000
Transition Dipole:           No
Gradient of Microstate:      No
CP-REKS Solver:              Preconditioned Conjugate-Gradient
CG max. Iterations:                     100
CG Tolerance:                  0.100000E-07
Memory for A and Hxc:        Direct Updating Without Saving
Non-Adiabatic Coupling:      Yes

--------------------------------------------------------------------------------

***  Geometry step: 0

  iSCC       reks energy        Diff energy         x_a       SCC error   
    1      -16.3816353904       0.0000000000     0.997212    1.21754687
    2      -16.4006827243      -0.0190473340     0.999712    0.06023260
    3      -16.4047820994      -0.0040993751     0.999912    0.03069278
    4      -16.4060755534      -0.0012934539     0.999955    0.01883622
    5      -16.4066010622      -0.0005255088     0.999970    0.01172869
    6      -16.4068508491      -0.0002497868     0.999977    0.00756380
    7      -16.4069831196      -0.0001322705     0.999981    0.00502846
    8      -16.4070589968      -0.0000758772     0.999983    0.00343108
    9      -16.4071053231      -0.0000463263     0.999984    0.00253595
   10      -16.4071350435      -0.0000297204     0.999985    0.00213243
   11      -16.4071548716      -0.0000198280     0.999986    0.00179567
   12      -16.4071685078      -0.0000136362     0.999986    0.00151442
   13      -16.4071781051      -0.0000095973     0.999987    0.00127909
   14      -16.4071849784      -0.0000068733     0.999987    0.00108176
   15      -16.4071899656      -0.0000049872     0.999987    0.00091591
   16      -16.4071936206      -0.0000036550     0.999987    0.00077618
   17      -16.4071963204      -0.0000026998     0.999987    0.00065821
   18      -16.4071983275      -0.0000020072     0.999987    0.00055840
   19      -16.4071998284      -0.0000015008     0.999988    0.00047380
   20      -16.4072009567      -0.0000011284     0.999988    0.00040194
   21      -16.4072018099      -0.0000008531     0.999988    0.00034082
   22      -16.4072024589      -0.0000006490     0.999988    0.00028875
   23      -16.4072029561      -0.0000004972     0.999988    0.00024431
   24      -16.4072033401      -0.0000003840     0.999988    0.00020636
   25      -16.4072036396      -0.0000002995     0.999988    0.00017921
   26      -16.4072038759      -0.0000002362     0.999988    0.00015933
   27      -16.4072040647      -0.0000001888     0.999988    0.00014181
   28      -16.4072042179      -0.0000001532     0.999988    0.00012641
   29      -16.4072043443      -0.0000001264     0.999988    0.00011291
   30      -16.4072044506      -0.0000001063     0.999988    0.00010109
   31      -16.4072045416      -0.0000000911     0.999988    0.00009077
   32      -16.4072046212      -0.0000000796     0.999988    0.00008176
   33      -16.4072046920      -0.0000000708     0.999988    0.00007391
   34      -16.4072047563      -0.0000000642     0.999988    0.00006707
   35      -16.4072048154      -0.0000000592     0.999988    0.00006112
   36      -16.4072048708      -0.0000000553     0.999988    0.00005594
   37      -16.4072049231      -0.0000000524     0.999988    0.00005144
   38      -16.4072049732      -0.0000000501     0.999988    0.00004754
   39      -16.4072050216      -0.0000000483     0.999988    0.00004414
   40      -16.4072050685      -0.0000000470     0.999988    0.00004120
   41      -16.4072051144      -0.0000000459     0.999988    0.00003864
   42      -16.4072051595      -0.0000000450     0.999988    0.00003643
   43      -16.4072052038      -0.0000000444     0.999988    0.00003490
   44      -16.4072052477      -0.0000000438     0.999988    0.00003473
   45      -16.4072052911      -0.0000000434     0.999988    0.00003460
   46      -16.4072053341      -0.0000000430     0.999988    0.00003450
   47      -16.4072053768      -0.0000000427     0.999988    0.00003443
   48      -16.4072054192      -0.0000000425     0.999988    0.00003437
   49      -16.4072054615      -0.0000000422     0.999988    0.00003434
   50      -16.4072055035      -0.0000000420     0.999988    0.00003431
   51      -16.4072055453      -0.0000000419     0.999988    0.00003429
   52      -16.4072055870      -0.0000000417     0.999988    0.00003429
   53      -16.4072056286      -0.0000000416     0.999988    0.00003429
   54      -16.4072056700      -0.0000000414     0.999988    0.00003429
   55      -16.4072057114      -0.0000000413     0.999988    0.00003430
   56      -16.4072057526      -0.0000000412     0.999988    0.00003431
   57      -16.4072057936      -0.0000000411     0.999988    0.00003432
   58      -16.4072058346      -0.0000000410     0.999988    0.00003433
   59      -16.4072058755      -0.0000000409     0.999988    0.00003435
   60      -16.4072059163      -0.0000000408     0.999988    0.00003436
   61      -16.4072059570      -0.0000000407     0.999988    0.00003438
   62      -16.4072059976      -0.0000000406     0.999988    0.00003439
   63      -16.4072060381      -0.0000000405     0.999988    0.00003440
   64      -16.4072060785      -0.0000000404     0.999988    0.00003441
   65      -16.4072061188      -0.0000000403     0.999988    0.00003442
   66      -16.4072061591      -0.0000000402     0.999988    0.00003443
   67      -16.4072061993      -0.0000000402     0.999988    0.00003444
   68      -16.4072062393      -0.0000000401     0.999988    0.00003445
   69      -16.4072062793      -0.0000000400     0.999988    0.00003446
   70      -16.4072063193      -0.0000000399     0.999988    0.00003446
   71      -16.4072063591      -0.0000000398     0.999988    0.00003447
   72      -16.4072063989      -0.0000000398     0.999988    0.00003447
   73      -16.4072064385      -0.0000000397     0.999988    0.00003448
   74      -16.4072064781      -0.0000000396     0.999988    0.00003448
   75      -16.4072065177      -0.0000000395     0.999988    0.00003448
   76      -16.4072065571      -0.0000000395     0.999988    0.00003448
   77      -16.4072065965      -0.0000000394     0.999988    0.00003448
   78      -16.4072066358      -0.0000000393     0.999988    0.00003448
   79      -16.4072066751      -0.0000000392     0.999988    0.00003448
   80      -16.4072067142      -0.0000000392     0.999988    0.00003448
   81      -16.4072067533      -0.0000000391     0.999988    0.00003448
   82      -16.4072067923      -0.0000000390     0.999988    0.00003447
   83      -16.4072068313      -0.0000000390     0.999988    0.00003447
   84      -16.4072068702      -0.0000000389     0.999988    0.00003447
   85      -16.4072069090      -0.0000000388     0.999988    0.00003446
   86      -16.4072069477      -0.0000000387     0.999988    0.00003446
   87      -16.4072069864      -0.0000000387     0.999988    0.00003446
   88      -16.4072070250      -0.0000000386     0.999988    0.00003445
   89      -16.4072070636      -0.0000000385     0.999988    0.00003445
   90      -16.4072071021      -0.0000000385     0.999988    0.00003444
   91      -16.4072071405      -0.0000000384     0.999988    0.00003444
   92      -16.4072071788      -0.0000000384     0.999988    0.00003443
   93      -16.4072072171      -0.0000000383     0.999988    0.00003443
   94      -16.4072072554      -0.0000000382     0.999988    0.00003442
   95      -16.4072072935      -0.0000000382     0.999988    0.00003442
   96      -16.4072073316      -0.0000000381     0.999988    0.00003442
   97      -16.4072073697      -0.0000000380     0.999988    0.00003441
   98      -16.4072074077      -0.0000000380     0.999988    0.00003441
   99      -16.4072074456      -0.0000000379     0.999988    0.00003440
  100      -16.4072074835      -0.0000000379     0.999988    0.00003440
  101      -16.4072075213      -0.0000000378     0.999988    0.00003439
  102      -16.4072075590      -0.0000000378     0.999988    0.00003439
  103      -16.4072075967      -0.0000000377     0.999988    0.00003438
  104      -16.4072076344      -0.0000000376     0.999988    0.00003438
  105      -16.4072076720      -0.0000000376     0.999988    0.00003437
  106      -16.4072077095      -0.0000000375     0.999988    0.00003437
  107      -16.4072077470      -0.0000000375     0.999988    0.00003437
  108      -16.4072077844      -0.0000000374     0.999988    0.00003436
  109      -16.4072078218      -0.0000000374     0.999988    0.00003436
  110      -16.4072078591      -0.0000000373     0.999988    0.00003435
  111      -16.4072078964      -0.0000000373     0.999988    0.00003435
  112      -16.4072079336      -0.0000000372     0.999988    0.00003435
  113      -16.4072079708      -0.0000000372     0.999988    0.00003435
  114      -16.4072080079      -0.0000000371     0.999988    0.00003434
  115      -16.4072080450      -0.0000000371     0.999988    0.00003434
  116      -16.4072080820      -0.0000000370     0.999988    0.00003434
  117      -16.4072081190      -0.0000000370     0.999988    0.00003434
  118      -16.4072081559      -0.0000000369     0.999988    0.00003433
  119      -16.4072081928      -0.0000000369     0.999988    0.00003433
  120      -16.4072082296      -0.0000000368     0.999988    0.00003433
  121      -16.4072082664      -0.0000000368     0.999988    0.00003433
  122      -16.4072083032      -0.0000000367     0.999988    0.00003433
  123      -16.4072083399      -0.0000000367     0.999988    0.00003433
  124      -16.4072083766      -0.0000000367     0.999988    0.00003432
  125      -16.4072084132      -0.0000000366     0.999988    0.00003432
  126      -16.4072084498      -0.0000000366     0.999988    0.00003432
  127      -16.4072084863      -0.0000000365     0.999988    0.00003432
  128      -16.4072085228      -0.0000000365     0.999988    0.00003432
  129      -16.4072085592      -0.0000000365     0.999988    0.00003432
  130      -16.4072085956      -0.0000000364     0.999988    0.00003432
  131      -16.4072086320      -0.0000000364     0.999988    0.00003432
  132      -16.4072086684      -0.0000000363     0.999988    0.00003432
  133      -16.4072087047      -0.0000000363     0.999988    0.00003433
  134      -16.4072087409      -0.0000000363     0.999988    0.00003433
  135      -16.4072087771      -0.0000000362     0.999988    0.00003433
  136      -16.4072088133      -0.0000000362     0.999988    0.00003433
  137      -16.4072088495      -0.0000000361     0.999988    0.00003433
  138      -16.4072088856      -0.0000000361     0.999988    0.00003433
  139      -16.4072089217      -0.0000000361     0.999988    0.00003434
  140      -16.4072089577      -0.0000000360     0.999988    0.00003434
  141      -16.4072089937      -0.0000000360     0.999988    0.00003434
  142      -16.4072090297      -0.0000000360     0.999988    0.00003434
  143      -16.4072090656      -0.0000000359     0.999988    0.00003435
  144      -16.4072091015      -0.0000000359     0.999988    0.00003435
  145      -16.4072091374      -0.0000000359     0.999988    0.00003435
  146      -16.4072091733      -0.0000000358     0.999988    0.00003436
  147      -16.4072092091      -0.0000000358     0.999988    0.00003436
  148      -16.4072092449      -0.0000000358     0.999988    0.00003437
  149      -16.4072092806      -0.0000000358     0.999988    0.00003437
  150      -16.4072093164      -0.0000000357     0.999988    0.00003438
  151      -16.4072093521      -0.0000000357     0.999988    0.00003438
  152      -16.4072093877      -0.0000000357     0.999988    0.00003439
  153      -16.4072094234      -0.0000000356     0.999988    0.00003439
  154      -16.4072094590      -0.0000000356     0.999988    0.00003440
  155      -16.4072094946      -0.0000000356     0.999988    0.00003440
  156      -16.4072095301      -0.0000000356     0.999988    0.00003441
  157      -16.4072095657      -0.0000000355     0.999988    0.00003441
  158      -16.4072096012      -0.0000000355     0.999988    0.00003442
  159      -16.4072096367      -0.0000000355     0.999988    0.00003443
  160      -16.4072096722      -0.0000000355     0.999988    0.00003443
  161      -16.4072097076      -0.0000000354     0.999988    0.00003444
  162      -16.4072097430      -0.0000000354     0.999988    0.00003445
  163      -16.4072097784      -0.0000000354     0.999988    0.00003446
  164      -16.4072098138      -0.0000000354     0.999988    0.00003446
  165      -16.4072098491      -0.0000000354     0.999988    0.00003447
  166      -16.4072098845      -0.0000000353     0.999988    0.00003448
  167      -16.4072099198      -0.0000000353     0.999988    0.00003449
  168      -16.4072099551      -0.0000000353     0.999988    0.00003450
  169      -16.4072099904      -0.0000000353     0.999988    0.00003451
  170      -16.4072100256      -0.0000000353     0.999988    0.00003451
  171      -16.4072100609      -0.0000000352     0.999988    0.00003452
  172      -16.4072100961      -0.0000000352     0.999988    0.00003453
  173      -16.4072101313      -0.0000000352     0.999988    0.00003454
  174      -16.4072101665      -0.0000000352     0.999988    0.00003455
  175      -16.4072102016      -0.0000000352     0.999988    0.00003456
  176      -16.4072102368      -0.0000000352     0.999988    0.00003457
  177      -16.4072102719      -0.0000000351     0.999988    0.00003459
  178      -16.4072103071      -0.0000000351     0.999988    0.00003460
  179      -16.4072103422      -0.0000000351     0.999988    0.00003461
  180      -16.4072103773      -0.0000000351     0.999988    0.00003462
  181      -16.4072104124      -0.0000000351     0.999988    0.00003463
  182      -16.4072104474      -0.0000000351     0.999988    0.00003464
  183      -16.4072104825      -0.0000000351     0.999988    0.00003465
  184      -16.4072105175      -0.0000000350     0.999988    0.00003467
  185      -16.4072105526      -0.0000000350     0.999988    0.00003468
  186      -16.4072105876      -0.0000000350     0.999988    0.00003469
  187      -16.4072106226      -0.0000000350     0.999988    0.00003471
  188      -16.4072106576      -0.0000000350     0.999988    0.00003472
  189      -16.4072106926      -0.0000000350     0.999988    0.00003473
  190      -16.4072107276      -0.0000000350     0.999988    0.00003475
  191      -16.4072107626      -0.0000000350     0.999988    0.00003476
  192      -16.4072107976      -0.0000000350     0.999988    0.00003477
  193      -16.4072108325      -0.0000000350     0.999988    0.00003479
  194      -16.4072108675      -0.0000000350     0.999988    0.00003480
  195      -16.4072109025      -0.0000000350     0.999988    0.00003482
  196      -16.4072109374      -0.0000000349     0.999988    0.00003483
  197      -16.4072109723      -0.0000000349     0.999988    0.00003485
  198      -16.4072110073      -0.0000000349     0.999988    0.00003486
  199      -16.4072110422      -0.0000000349     0.999988    0.00003488
  200      -16.4072110771      -0.0000000349     0.999988    0.00003490
  201      -16.4072111121      -0.0000000349     0.999988    0.00003491
  202      -16.4072111470      -0.0000000349     0.999988    0.00003493
  203      -16.4072111819      -0.0000000349     0.999988    0.00003495
  204      -16.4072112168      -0.0000000349     0.999988    0.00003496
  205      -16.4072112518      -0.0000000349     0.999988    0.00003498
  206      -16.4072112867      -0.0000000349     0.999988    0.00003500
  207      -16.4072113216      -0.0000000349     0.999988    0.00003501
  208      -16.4072113565      -0.0000000349     0.999988    0.00003503
  209      -16.4072113914      -0.0000000349     0.999988    0.00003505
  210      -16.4072114264      -0.0000000349     0.999988    0.00003507
  211      -16.4072114613      -0.0000000349     0.999988    0.00003509
  212      -16.4072114962      -0.0000000349     0.999988    0.00003511
  213      -16.4072115311      -0.0000000349     0.999988    0.00003513
  214      -16.4072115661      -0.0000000349     0.999988    0.00003515
  215      -16.4072116010      -0.0000000349     0.999988    0.00003517
  216      -16.4072116359      -0.0000000349     0.999988    0.00003519
  217      -16.4072116709      -0.0000000349     0.999988    0.00003521
  218      -16.4072117058      -0.0000000349     0.999988    0.00003523
  219      -16.4072117408      -0.0000000350     0.999988    0.00003525
  220      -16.4072117757      -0.0000000350     0.999988    0.00003527
  221      -16.4072118107      -0.0000000350     0.999988    0.00003529
  222      -16.4072118457      -0.0000000350     0.999988    0.00003531
  223      -16.4072118806      -0.0000000350     0.999988    0.00003533
  224      -16.4072119156      -0.0000000350     0.999988    0.00003535
  225      -16.4072119506      -0.0000000350     0.999988    0.00003538
  226      -16.4072119856      -0.0000000350     0.999988    0.00003540
  227      -16.4072120207      -0.0000000350     0.999988    0.00003542
  228      -16.4072120557      -0.0000000350     0.999988    0.00003544
  229      -16.4072120907      -0.0000000350     0.999988    0.00003547
  230      -16.4072121258      -0.0000000350     0.999988    0.00003549
  231      -16.4072121608      -0.0000000351     0.999988    0.00003551
  232      -16.4072121959      -0.0000000351     0.999988    0.00003554
  233      -16.4072122310      -0.0000000351     0.999988    0.00003556
  234      -16.4072122661      -0.0000000351     0.999988    0.00003559
  235      -16.4072123012      -0.0000000351     0.999989    0.00003561
  236      -16.4072123363      -0.0000000351     0.999989    0.00003564
  237      -16.4072123715      -0.0000000351     0.999989    0.00003566
  238      -16.4072124066      -0.0000000352     0.999989    0.00003569
  239      -16.4072124418      -0.0000000352     0.999989    0.00003571
  240      -16.4072124770      -0.0000000352     0.999989    0.00003574
  241      -16.4072125122      -0.0000000352     0.999989    0.00003577
  242      -16.4072125474      -0.0000000352     0.999989    0.00003579
  243      -16.4072125826      -0.0000000352     0.999989    0.00003582
  244      -16.4072126179      -0.0000000353     0.999989    0.00003585
  245      -16.4072126532      -0.0000000353     0.999989    0.00003587
  246      -16.4072126885      -0.0000000353     0.999989    0.00003590
  247      -16.4072127238      -0.0000000353     0.999989    0.00003593
  248      -16.4072127591      -0.0000000353     0.999989    0.00003596
  249      -16.4072127945      -0.0000000354     0.999989    0.00003598
  250      -16.4072128298      -0.0000000354     0.999989    0.00003601
  251      -16.4072128652      -0.0000000354     0.999989    0.00003604
  252      -16.4072129006      -0.0000000354     0.999989    0.00003607
  253      -16.4072129361      -0.0000000354     0.999989    0.00003610
  254      -16.4072129716      -0.0000000355     0.999989    0.00003613
  255      -16.4072130070      -0.0000000355     0.999989    0.00003616
  256      -16.4072130426      -0.0000000355     0.999989    0.00003619
  257      -16.4072130781      -0.0000000355     0.999989    0.00003622
  258      -16.4072131137      -0.0000000356     0.999989    0.00003625
  259      -16.4072131493      -0.0000000356     0.999989    0.00003628
  260      -16.4072131849      -0.0000000356     0.999989    0.00003631
  261      -16.4072132205      -0.0000000356     0.999989    0.00003635
  262      -16.4072132562      -0.0000000357     0.999989    0.00003638
  263      -16.4072132919      -0.0000000357     0.999989    0.00003641
  264      -16.4072133276      -0.0000000357     0.999989    0.00003644
  265      -16.4072133634      -0.0000000358     0.999989    0.00003648
  266      -16.4072133991      -0.0000000358     0.999989    0.00003651
  267      -16.4072134350      -0.0000000358     0.999989    0.00003654
  268      -16.4072134708      -0.0000000358     0.999989    0.00003658
  269      -16.4072135067      -0.0000000359     0.999989    0.00003661
  270      -16.4072135426      -0.0000000359     0.999989    0.00003664
  271      -16.4072135785      -0.0000000359     0.999989    0.00003668
  272      -16.4072136145      -0.0000000360     0.999989    0.00003671
  273      -16.4072136505      -0.0000000360     0.999989    0.00003675
  274      -16.4072136866      -0.0000000360     0.999989    0.00003678
  275      -16.4072137226      -0.0000000361     0.999989    0.00003682
  276      -16.4072137588      -0.0000000361     0.999989    0.00003685
  277      -16.4072137949      -0.0000000361     0.999989    0.00003689
  278      -16.4072138311      -0.0000000362     0.999989    0.00003693
  279      -16.4072138673      -0.0000000362     0.999989    0.00003696
  280      -16.4072139036      -0.0000000363     0.999989    0.00003700
  281      -16.4072139399      -0.0000000363     0.999989    0.00003704
  282      -16.4072139762      -0.0000000363     0.999989    0.00003708
  283      -16.4072140126      -0.0000000364     0.999989    0.00003711
  284      -16.4072140490      -0.0000000364     0.999989    0.00003715
  285      -16.4072140854      -0.0000000365     0.999989    0.00003719
  286      -16.4072141219      -0.0000000365     0.999989    0.00003723
  287      -16.4072141585      -0.0000000365     0.999989    0.00003727
  288      -16.4072141950      -0.0000000366     0.999989    0.00003731
  289      -16.4072142316      -0.0000000366     0.999989    0.00003735
  290      -16.4072142683      -0.0000000367     0.999989    0.00003739
  291      -16.4072143050      -0.0000000367     0.999989    0.00003743
  292      -16.4072143418      -0.0000000367     0.999989    0.00003747
  293      -16.4072143786      -0.0000000368     0.999989    0.00003751
  294      -16.4072144154      -0.0000000368     0.999989    0.00003755
  295      -16.4072144523      -0.0000000369     0.999989    0.00003759
  296      -16.4072144892      -0.0000000369     0.999989    0.00003764
  297      -16.4072145262      -0.0000000370     0.999989    0.00003768
  298      -16.4072145632      -0.0000000370     0.999989    0.00003772
  299      -16.4072146003      -0.0000000371     0.999989    0.00003776
  300      -16.4072146374      -0.0000000371     0.999989    0.00003781
  301      -16.4072146746      -0.0000000372     0.999989    0.00003785
  302      -16.4072147118      -0.0000000372     0.999989    0.00003789
  303      -16.4072147491      -0.0000000373     0.999989    0.00003794
  304      -16.4072147864      -0.0000000373     0.999989    0.00003798
  305      -16.4072148238      -0.0000000374     0.999989    0.00003803
  306      -16.4072148612      -0.0000000374     0.999989    0.00003807
  307      -16.4072148987      -0.0000000375     0.999989    0.00003812
  308      -16.4072149362      -0.0000000375     0.999989    0.00003817
  309      -16.4072149738      -0.0000000376     0.999989    0.00003821
  310      -16.4072150115      -0.0000000376     0.999989    0.00003826
  311      -16.4072150492      -0.0000000377     0.999989    0.00003830
  312      -16.4072150869      -0.0000000378     0.999989    0.00003835
  313      -16.4072151247      -0.0000000378     0.999989    0.00003840
  314      -16.4072151626      -0.0000000379     0.999989    0.00003845
  315      -16.4072152005      -0.0000000379     0.999989    0.00003850
  316      -16.4072152385      -0.0000000380     0.999989    0.00003854
  317      -16.4072152766      -0.0000000380     0.999989    0.00003859
  318      -16.4072153147      -0.0000000381     0.999989    0.00003864
  319      -16.4072153528      -0.0000000382     0.999989    0.00003869
  320      -16.4072153911      -0.0000000382     0.999989    0.00003874
  321      -16.4072154294      -0.0000000383     0.999989    0.00003879
  322      -16.4072154677      -0.0000000384     0.999989    0.00003884
  323      -16.4072155062      -0.0000000384     0.999989    0.00003889
  324      -16.4072155446      -0.0000000385     0.999989    0.00003895
  325      -16.4072155832      -0.0000000385     0.999989    0.00003900
  326      -16.4072156218      -0.0000000386     0.999989    0.00003905
  327      -16.4072156605      -0.0000000387     0.999989    0.00003910
  328      -16.4072156992      -0.0000000387     0.999989    0.00003915
  329      -16.4072157380      -0.0000000388     0.999989    0.00003921
  330      -16.4072157769      -0.0000000389     0.999989    0.00003926
  331      -16.4072158159      -0.0000000390     0.999989    0.00003931
  332      -16.4072158549      -0.0000000390     0.999989    0.00003937
  333      -16.4072158940      -0.0000000391     0.999989    0.00003942
  334      -16.4072159332      -0.0000000392     0.999989    0.00003948
  335      -16.4072159724      -0.0000000392     0.999989    0.00003953
  336      -16.4072160117      -0.0000000393     0.999989    0.00003959
  337      -16.4072160511      -0.0000000394     0.999989    0.00003965
  338      -16.4072160905      -0.0000000395     0.999989    0.00003970
  339      -16.4072161301      -0.0000000395     0.999989    0.00003976
  340      -16.4072161697      -0.0000000396     0.999989    0.00003982
  341      -16.4072162094      -0.0000000397     0.999989    0.00003987
  342      -16.4072162491      -0.0000000398     0.999989    0.00003993
  343      -16.4072162890      -0.0000000398     0.999989    0.00003999
  344      -16.4072163289      -0.0000000399     0.999989    0.00004005
  345      -16.4072163689      -0.0000000400     0.999989    0.00004011
  346      -16.4072164090      -0.0000000401     0.999989    0.00004017
  347      -16.4072164491      -0.0000000402     0.999989    0.00004023
  348      -16.4072164894      -0.0000000402     0.999989    0.00004029
  349      -16.4072165297      -0.0000000403     0.999989    0.00004035
  350      -16.4072165701      -0.0000000404     0.999989    0.00004041
  351      -16.4072166106      -0.0000000405     0.999989    0.00004047
  352      -16.4072166511      -0.0000000406     0.999989    0.00004053
  353      -16.4072166918      -0.0000000407     0.999989    0.00004060
  354      -16.4072167325      -0.0000000407     0.999989    0.00004066
  355      -16.4072167734      -0.0000000408     0.999989    0.00004072
  356      -16.4072168143      -0.0000000409     0.999989    0.00004079
  357      -16.4072168553      -0.0000000410     0.999989    0.00004085
  358      -16.4072168964      -0.0000000411     0.999989    0.00004091
  359      -16.4072169376      -0.0000000412     0.999989    0.00004098
  360      -16.4072169789      -0.0000000413     0.999989    0.00004104
  361      -16.4072170202      -0.0000000414     0.999989    0.00004111
  362      -16.4072170617      -0.0000000415     0.999989    0.00004118
  363      -16.4072171033      -0.0000000416     0.999989    0.00004124
  364      -16.4072171449      -0.0000000417     0.999989    0.00004131
  365      -16.4072171867      -0.0000000418     0.999989    0.00004138
  366      -16.4072172285      -0.0000000418     0.999989    0.00004145
  367      -16.4072172705      -0.0000000419     0.999989    0.00004151
  368      -16.4072173125      -0.0000000420     0.999989    0.00004158
  369      -16.4072173547      -0.0000000421     0.999989    0.00004165
  370      -16.4072173969      -0.0000000422     0.999989    0.00004172
  371      -16.4072174392      -0.0000000423     0.999989    0.00004179
  372      -16.4072174817      -0.0000000424     0.999989    0.00004186
  373      -16.4072175242      -0.0000000425     0.999989    0.00004193
  374      -16.4072175669      -0.0000000427     0.999989    0.00004200
  375      -16.4072176096      -0.0000000428     0.999989    0.00004208
  376      -16.4072176525      -0.0000000429     0.999989    0.00004215
  377      -16.4072176955      -0.0000000430     0.999989    0.00004222
  378      -16.4072177385      -0.0000000431     0.999989    0.00004230
  379      -16.4072177817      -0.0000000432     0.999989    0.00004237
  380      -16.4072178250      -0.0000000433     0.999989    0.00004244
  381      -16.4072178684      -0.0000000434     0.999989    0.00004252
  382      -16.4072179119      -0.0000000435     0.999989    0.00004259
  383      -16.4072179555      -0.0000000436     0.999989    0.00004267
  384      -16.4072179993      -0.0000000437     0.999989    0.00004274
  385      -16.4072180431      -0.0000000439     0.999989    0.00004282
  386      -16.4072180871      -0.0000000440     0.999989    0.00004290
  387      -16.4072181312      -0.0000000441     0.999989    0.00004298
  388      -16.4072181754      -0.0000000442     0.999989    0.00004305
  389      -16.4072182197      -0.0000000443     0.999989    0.00004313
  390      -16.4072182641      -0.0000000444     0.999989    0.00004321
  391      -16.4072183087      -0.0000000446     0.999989    0.00004329
  392      -16.4072183534      -0.0000000447     0.999989    0.00004337
  393      -16.4072183982      -0.0000000448     0.999989    0.00004345
  394      -16.4072184431      -0.0000000449     0.999989    0.00004353
  395      -16.4072184882      -0.0000000451     0.999989    0.00004361
  396      -16.4072185333      -0.0000000452     0.999989    0.00004370
  397      -16.4072185786      -0.0000000453     0.999989    0.00004378
  398      -16.4072186241      -0.0000000454     0.999989    0.00004386
  399      -16.4072186696      -0.0000000456     0.999989    0.00004395
  400      -16.4072187153      -0.0000000457     0.999989    0.00004403
  401      -16.4072187611      -0.0000000458     0.999989    0.00004412
  402      -16.4072188071      -0.0000000460     0.999989    0.00004420
  403      -16.4072188532      -0.0000000461     0.999989    0.00004429
  404      -16.4072188994      -0.0000000462     0.999989    0.00004437
  405      -16.4072189458      -0.0000000464     0.999989    0.00004446
  406      -16.4072189922      -0.0000000465     0.999989    0.00004455
  407      -16.4072190389      -0.0000000466     0.999989    0.00004464
  408      -16.4072190856      -0.0000000468     0.999989    0.00004472
  409      -16.4072191326      -0.0000000469     0.999989    0.00004481
  410      -16.4072191796      -0.0000000471     0.999989    0.00004490
  411      -16.4072192268      -0.0000000472     0.999989    0.00004499
  412      -16.4072192741      -0.0000000473     0.999989    0.00004508
  413      -16.4072193216      -0.0000000475     0.999989    0.00004517
  414      -16.4072193693      -0.0000000476     0.999989    0.00004527
  415      -16.4072194170      -0.0000000478     0.999989    0.00004536
  416      -16.4072194650      -0.0000000479     0.999989    0.00004545
  417      -16.4072195130      -0.0000000481     0.999989    0.00004555
  418      -16.4072195613      -0.0000000482     0.999989    0.00004564
  419      -16.4072196096      -0.0000000484     0.999989    0.00004573
  420      -16.4072196582      -0.0000000485     0.999989    0.00004583
  421      -16.4072197069      -0.0000000487     0.999989    0.00004593
  422      -16.4072197557      -0.0000000488     0.999989    0.00004602
  423      -16.4072198047      -0.0000000490     0.999989    0.00004612
  424      -16.4072198539      -0.0000000492     0.999989    0.00004622
  425      -16.4072199032      -0.0000000493     0.999989    0.00004632
  426      -16.4072199527      -0.0000000495     0.999989    0.00004642
  427      -16.4072200023      -0.0000000496     0.999989    0.00004651
  428      -16.4072200522      -0.0000000498     0.999989    0.00004662
  429      -16.4072201021      -0.0000000500     0.999989    0.00004672
  430      -16.4072201523      -0.0000000501     0.999989    0.00004682
  431      -16.4072202026      -0.0000000503     0.999989    0.00004692
  432      -16.4072202531      -0.0000000505     0.999989    0.00004702
  433      -16.4072203038      -0.0000000507     0.999989    0.00004713
  434      -16.4072203546      -0.0000000508     0.999989    0.00004723
  435      -16.4072204056      -0.0000000510     0.999989    0.00004733
  436      -16.4072204568      -0.0000000512     0.999989    0.00004744
  437      -16.4072205081      -0.0000000514     0.999989    0.00004755
  438      -16.4072205597      -0.0000000515     0.999989    0.00004765
  439      -16.4072206114      -0.0000000517     0.999989    0.00004776
  440      -16.4072206633      -0.0000000519     0.999989    0.00004787
  441      -16.4072207154      -0.0000000521     0.999989    0.00004798
  442      -16.4072207677      -0.0000000523     0.999989    0.00004809
  443      -16.4072208201      -0.0000000525     0.999989    0.00004820
  444      -16.4072208728      -0.0000000527     0.999989    0.00004831
  445      -16.4072209256      -0.0000000528     0.999990    0.00004842
  446      -16.4072209787      -0.0000000530     0.999990    0.00004853
  447      -16.4072210319      -0.0000000532     0.999990    0.00004864
  448      -16.4072210853      -0.0000000534     0.999990    0.00004876
  449      -16.4072211389      -0.0000000536     0.999990    0.00004887
  450      -16.4072211927      -0.0000000538     0.999990    0.00004899
  451      -16.4072212468      -0.0000000540     0.999990    0.00004910
  452      -16.4072213010      -0.0000000542     0.999990    0.00004922
  453      -16.4072213554      -0.0000000544     0.999990    0.00004934
  454      -16.4072214100      -0.0000000546     0.999990    0.00004945
  455      -16.4072214649      -0.0000000548     0.999990    0.00004957
  456      -16.4072215199      -0.0000000550     0.999990    0.00004969
  457      -16.4072215752      -0.0000000553     0.999990    0.00004981
  458      -16.4072216306      -0.0000000555     0.999990    0.00004993
  459      -16.4072216863      -0.0000000557     0.999990    0.00005006
  460      -16.4072217422      -0.0000000559     0.999990    0.00005018
  461      -16.4072217983      -0.0000000561     0.999990    0.00005030
  462      -16.4072218547      -0.0000000563     0.999990    0.00005043
  463      -16.4072219112      -0.0000000566     0.999990    0.00005055
  464      -16.4072219680      -0.0000000568     0.999990    0.00005068
  465      -16.4072220250      -0.0000000570     0.999990    0.00005080
  466      -16.4072220823      -0.0000000572     0.999990    0.00005093
  467      -16.4072221397      -0.0000000575     0.999990    0.00005106
  468      -16.4072221974      -0.0000000577     0.999990    0.00005119
  469      -16.4072222553      -0.0000000579     0.999990    0.00005132
  470      -16.4072223135      -0.0000000582     0.999990    0.00005145
  471      -16.4072223719      -0.0000000584     0.999990    0.00005158
  472      -16.4072224306      -0.0000000586     0.999990    0.00005171
  473      -16.4072224894      -0.0000000589     0.999990    0.00005184
  474      -16.4072225486      -0.0000000591     0.999990    0.00005198
  475      -16.4072226079      -0.0000000594     0.999990    0.00005211
  476      -16.4072226676      -0.0000000596     0.999990    0.00005225
  477      -16.4072227274      -0.0000000599     0.999990    0.00005238
  478      -16.4072227876      -0.0000000601     0.999990    0.00005252
  479      -16.4072228479      -0.0000000604     0.999990    0.00005266
  480      -16.4072229086      -0.0000000606     0.999990    0.00005280
  481      -16.4072229695      -0.0000000609     0.999990    0.00005294
  482      -16.4072230306      -0.0000000612     0.999990    0.00005308
  483      -16.4072230921      -0.0000000614     0.999990    0.00005322
  484      -16.4072231537      -0.0000000617     0.999990    0.00005336
  485      -16.4072232157      -0.0000000620     0.999990    0.00005351
  486      -16.4072232779      -0.0000000622     0.999990    0.00005365
  487      -16.4072233404      -0.0000000625     0.999990    0.00005380
  488      -16.4072234032      -0.0000000628     0.999990    0.00005394
  489      -16.4072234662      -0.0000000631     0.999990    0.00005409
  490      -16.4072235296      -0.0000000633     0.999990    0.00005424
  491      -16.4072235932      -0.0000000636     0.999990    0.00005439
  492      -16.4072236571      -0.0000000639     0.999990    0.00005454
  493      -16.4072237213      -0.0000000642     0.999990    0.00005469
  494      -16.4072237858      -0.0000000645     0.999990    0.00005484
  495      -16.4072238505      -0.0000000648     0.999990    0.00005499
  496      -16.4072239156      -0.0000000651     0.999990    0.00005515
  497      -16.4072239810      -0.0000000654     0.999990    0.00005530
  498      -16.4072240466      -0.0000000657     0.999990    0.00005546
  499      -16.4072241126      -0.0000000660     0.999990    0.00005562
  500      -16.4072241789      -0.0000000663     0.999990    0.00005578
  501      -16.4072242455      -0.0000000666     0.999990    0.00005593
  502      -16.4072243124      -0.0000000669     0.999990    0.00005609
  503      -16.4072243796      -0.0000000672     0.999990    0.00005626
  504      -16.4072244471      -0.0000000675     0.999990    0.00005642
  505      -16.4072245150      -0.0000000678     0.999990    0.00005658
  506      -16.4072245831      -0.0000000682     0.999990    0.00005675
  507      -16.4072246516      -0.0000000685     0.999990    0.00005691
  508      -16.4072247204      -0.0000000688     0.999990    0.00005708
  509      -16.4072247896      -0.0000000692     0.999990    0.00005725
  510      -16.4072248591      -0.0000000695     0.999990    0.00005741
  511      -16.4072249289      -0.0000000698     0.999990    0.00005758
  512      -16.4072249991      -0.0000000702     0.999990    0.00005776
  513      -16.4072250696      -0.0000000705     0.999990    0.00005793
  514      -16.4072251405      -0.0000000709     0.999990    0.00005810
  515      -16.4072252117      -0.0000000712     0.999990    0.00005828
  516      -16.4072252833      -0.0000000716     0.999990    0.00005845
  517      -16.4072253552      -0.0000000719     0.999990    0.00005863
  518      -16.4072254275      -0.0000000723     0.999990    0.00005881
  519      -16.4072255001      -0.0000000726     0.999990    0.00005898
  520      -16.4072255731      -0.0000000730     0.999990    0.00005917
  521      -16.4072256465      -0.0000000734     0.999990    0.00005935
  522      -16.4072257203      -0.0000000738     0.999990    0.00005953
  523      -16.4072257944      -0.0000000741     0.999990    0.00005971
  524      -16.4072258689      -0.0000000745     0.999990    0.00005990
  525      -16.4072259438      -0.0000000749     0.999990    0.00006008
  526      -16.4072260191      -0.0000000753     0.999990    0.00006027
  527      -16.4072260948      -0.0000000757     0.999990    0.00006046
  528      -16.4072261709      -0.0000000761     0.999990    0.00006065
  529      -16.4072262474      -0.0000000765     0.999990    0.00006084
  530      -16.4072263242      -0.0000000769     0.999990    0.00006104
  531      -16.4072264015      -0.0000000773     0.999990    0.00006123
  532      -16.4072264792      -0.0000000777     0.999990    0.00006143
  533      -16.4072265573      -0.0000000781     0.999990    0.00006162
  534      -16.4072266358      -0.0000000785     0.999990    0.00006182
  535      -16.4072267148      -0.0000000789     0.999990    0.00006202
  536      -16.4072267941      -0.0000000794     0.999990    0.00006222
  537      -16.4072268739      -0.0000000798     0.999990    0.00006242
  538      -16.4072269542      -0.0000000802     0.999990    0.00006263
  539      -16.4072270348      -0.0000000807     0.999990    0.00006283
  540      -16.4072271159      -0.0000000811     0.999990    0.00006304
  541      -16.4072271975      -0.0000000816     0.999990    0.00006324
  542      -16.4072272795      -0.0000000820     0.999990    0.00006345
  543      -16.4072273620      -0.0000000825     0.999990    0.00006366
  544      -16.4072274449      -0.0000000829     0.999990    0.00006388
  545      -16.4072275283      -0.0000000834     0.999990    0.00006409
  546      -16.4072276121      -0.0000000839     0.999990    0.00006430
  547      -16.4072276965      -0.0000000843     0.999990    0.00006452
  548      -16.4072277813      -0.0000000848     0.999990    0.00006474
  549      -16.4072278665      -0.0000000853     0.999990    0.00006496
  550      -16.4072279523      -0.0000000858     0.999990    0.00006518
  551      -16.4072280386      -0.0000000863     0.999990    0.00006540
  552      -16.4072281253      -0.0000000868     0.999990    0.00006562
  553      -16.4072282126      -0.0000000873     0.999990    0.00006585
  554      -16.4072283003      -0.0000000878     0.999990    0.00006608
  555      -16.4072283886      -0.0000000883     0.999990    0.00006631
  556      -16.4072284774      -0.0000000888     0.999990    0.00006654
  557      -16.4072285667      -0.0000000893     0.999990    0.00006677
  558      -16.4072286565      -0.0000000898     0.999990    0.00006700
  559      -16.4072287469      -0.0000000904     0.999990    0.00006724
  560      -16.4072288378      -0.0000000909     0.999990    0.00006747
  561      -16.4072289292      -0.0000000914     0.999990    0.00006771
  562      -16.4072290212      -0.0000000920     0.999990    0.00006795
  563      -16.4072291138      -0.0000000925     0.999990    0.00006819
  564      -16.4072292069      -0.0000000931     0.999990    0.00006844
  565      -16.4072293005      -0.0000000937     0.999991    0.00006868
  566      -16.4072293948      -0.0000000942     0.999991    0.00006893
  567      -16.4072294896      -0.0000000948     0.999991    0.00006918
  568      -16.4072295849      -0.0000000954     0.999991    0.00006943
  569      -16.4072296809      -0.0000000960     0.999991    0.00006968
  570      -16.4072297775      -0.0000000966     0.999991    0.00006993
  571      -16.4072298746      -0.0000000972     0.999991    0.00007019
  572      -16.4072299724      -0.0000000978     0.999991    0.00007045
  573      -16.4072300708      -0.0000000984     0.999991    0.00007071
  574      -16.4072301697      -0.0000000990     0.999991    0.00007097
  575      -16.4072302694      -0.0000000996     0.999991    0.00007123
  576      -16.4072303696      -0.0000001002     0.999991    0.00007150
  577      -16.4072304705      -0.0000001009     0.999991    0.00007176
  578      -16.4072305720      -0.0000001015     0.999991    0.00007203
  579      -16.4072306741      -0.0000001022     0.999991    0.00007230
  580      -16.4072307770      -0.0000001028     0.999991    0.00007258
  581      -16.4072308804      -0.0000001035     0.999991    0.00007285
  582      -16.4072309846      -0.0000001041     0.999991    0.00007313
  583      -16.4072310894      -0.0000001048     0.999991    0.00007341
  584      -16.4072311949      -0.0000001055     0.999991    0.00007369
  585      -16.4072313011      -0.0000001062     0.999991    0.00007397
  586      -16.4072314080      -0.0000001069     0.999991    0.00007426
  587      -16.4072315156      -0.0000001076     0.999991    0.00007454
  588      -16.4072316239      -0.0000001083     0.999991    0.00007483
  589      -16.4072317329      -0.0000001090     0.999991    0.00007513
  590      -16.4072318427      -0.0000001098     0.999991    0.00007542
  591      -16.4072319532      -0.0000001105     0.999991    0.00007571
  592      -16.4072320644      -0.0000001112     0.999991    0.00007601
  593      -16.4072321764      -0.0000001120     0.999991    0.00007631
  594      -16.4072322891      -0.0000001127     0.999991    0.00007661
  595      -16.4072324026      -0.0000001135     0.999991    0.00007692
  596      -16.4072325169      -0.0000001143     0.999991    0.00007723
  597      -16.4072326319      -0.0000001151     0.999991    0.00007754
  598      -16.4072327478      -0.0000001158     0.999991    0.00007785
  599      -16.4072328644      -0.0000001166     0.999991    0.00007816
  600      -16.4072329819      -0.0000001175     0.999991    0.00007848
  601      -16.4072331001      -0.0000001183     0.999991    0.00007880
  602      -16.4072332192      -0.0000001191     0.999991    0.00007912
  603      -16.4072333392      -0.0000001199     0.999991    0.00007944
  604      -16.4072334599      -0.0000001208     0.999991    0.00007977
  605      -16.4072335815      -0.0000001216     0.999991    0.00008009
  606      -16.4072337040      -0.0000001225     0.999991    0.00008042
  607      -16.4072338274      -0.0000001234     0.999991    0.00008076
  608      -16.4072339516      -0.0000001242     0.999991    0.00008109
  609      -16.4072340767      -0.0000001251     0.999991    0.00008143
  610      -16.4072342028      -0.0000001260     0.999991    0.00008177
  611      -16.4072343297      -0.0000001269     0.999991    0.00008212
  612      -16.4072344575      -0.0000001279     0.999991    0.00008246
  613      -16.4072345863      -0.0000001288     0.999991    0.00008281
  614      -16.4072347160      -0.0000001297     0.999991    0.00008316
  615      -16.4072348467      -0.0000001307     0.999991    0.00008352
  616      -16.4072349783      -0.0000001316     0.999991    0.00008387
  617      -16.4072351109      -0.0000001326     0.999991    0.00008423
  618      -16.4072352445      -0.0000001336     0.999991    0.00008460
  619      -16.4072353791      -0.0000001346     0.999991    0.00008496
  620      -16.4072355147      -0.0000001356     0.999991    0.00008533
  621      -16.4072356513      -0.0000001366     0.999991    0.00008570
  622      -16.4072357889      -0.0000001376     0.999991    0.00008607
  623      -16.4072359276      -0.0000001387     0.999991    0.00008645
  624      -16.4072360673      -0.0000001397     0.999991    0.00008683
  625      -16.4072362081      -0.0000001408     0.999991    0.00008721
  626      -16.4072363499      -0.0000001419     0.999991    0.00008760
  627      -16.4072364929      -0.0000001429     0.999991    0.00008799
  628      -16.4072366369      -0.0000001440     0.999991    0.00008838
  629      -16.4072367821      -0.0000001452     0.999991    0.00008877
  630      -16.4072369284      -0.0000001463     0.999991    0.00008917
  631      -16.4072370758      -0.0000001474     0.999991    0.00008957
  632      -16.4072372244      -0.0000001486     0.999991    0.00008998
  633      -16.4072373741      -0.0000001497     0.999991    0.00009039
  634      -16.4072375250      -0.0000001509     0.999991    0.00009080
  635      -16.4072376771      -0.0000001521     0.999991    0.00009121
  636      -16.4072378304      -0.0000001533     0.999991    0.00009163
  637      -16.4072379850      -0.0000001545     0.999991    0.00009205
  638      -16.4072381408      -0.0000001558     0.999991    0.00009247
  639      -16.4072382978      -0.0000001570     0.999991    0.00009290
  640      -16.4072384561      -0.0000001583     0.999991    0.00009333
  641      -16.4072386156      -0.0000001596     0.999991    0.00009377
  642      -16.4072387765      -0.0000001609     0.999992    0.00009420
  643      -16.4072389387      -0.0000001622     0.999992    0.00009465
  644      -16.4072391021      -0.0000001635     0.999992    0.00009509
  645      -16.4072392670      -0.0000001648     0.999992    0.00009554
  646      -16.4072394332      -0.0000001662     0.999992    0.00009599
  647      -16.4072396007      -0.0000001676     0.999992    0.00009645
  648      -16.4072397697      -0.0000001690     0.999992    0.00009691
  649      -16.4072399401      -0.0000001704     0.999992    0.00009737
  650      -16.4072401118      -0.0000001718     0.999992    0.00009784
  651      -16.4072402851      -0.0000001732     0.999992    0.00009831
  652      -16.4072404598      -0.0000001747     0.999992    0.00009879
  653      -16.4072406359      -0.0000001762     0.999992    0.00009927
  654      -16.4072408136      -0.0000001777     0.999992    0.00009975
  655      -16.4072409928      -0.0000001792     0.999992    0.00010024
  656      -16.4072411735      -0.0000001807     0.999992    0.00010073
  657      -16.4072413557      -0.0000001823     0.999992    0.00010122
  658      -16.4072415396      -0.0000001838     0.999992    0.00010172
  659      -16.4072417250      -0.0000001854     0.999992    0.00010223
  660      -16.4072419120      -0.0000001870     0.999992    0.00010273
  661      -16.4072421006      -0.0000001887     0.999992    0.00010325
  662      -16.4072422909      -0.0000001903     0.999992    0.00010376
  663      -16.4072424829      -0.0000001920     0.999992    0.00010428
  664      -16.4072426766      -0.0000001937     0.999992    0.00010481
  665      -16.4072428720      -0.0000001954     0.999992    0.00010534
  666      -16.4072430691      -0.0000001971     0.999992    0.00010587
  667      -16.4072432679      -0.0000001989     0.999992    0.00010641
  668      -16.4072434686      -0.0000002006     0.999992    0.00010696
  669      -16.4072436710      -0.0000002024     0.999992    0.00010750
  670      -16.4072438753      -0.0000002043     0.999992    0.00010806
  671      -16.4072440814      -0.0000002061     0.999992    0.00010861
  672      -16.4072442894      -0.0000002080     0.999992    0.00010918
  673      -16.4072444993      -0.0000002099     0.999992    0.00010974
  674      -16.4072447111      -0.0000002118     0.999992    0.00011032
  675      -16.4072449249      -0.0000002137     0.999992    0.00011089
  676      -16.4072451406      -0.0000002157     0.999992    0.00011147
  677      -16.4072453583      -0.0000002177     0.999992    0.00011206
  678      -16.4072455780      -0.0000002197     0.999992    0.00011265
  679      -16.4072457998      -0.0000002218     0.999992    0.00011325
  680      -16.4072460237      -0.0000002239     0.999992    0.00011385
  681      -16.4072462496      -0.0000002260     0.999992    0.00011446
  682      -16.4072464777      -0.0000002281     0.999992    0.00011507
  683      -16.4072467080      -0.0000002302     0.999992    0.00011569
  684      -16.4072469404      -0.0000002324     0.999992    0.00011632
  685      -16.4072471750      -0.0000002346     0.999992    0.00011695
  686      -16.4072474119      -0.0000002369     0.999992    0.00011758
  687      -16.4072476511      -0.0000002392     0.999992    0.00011822
  688      -16.4072478926      -0.0000002415     0.999992    0.00011887
  689      -16.4072481364      -0.0000002438     0.999992    0.00011952
  690      -16.4072483825      -0.0000002462     0.999992    0.00012018
  691      -16.4072486311      -0.0000002486     0.999992    0.00012084
  692      -16.4072488821      -0.0000002510     0.999992    0.00012151
  693      -16.4072491356      -0.0000002535     0.999992    0.00012219
  694      -16.4072493916      -0.0000002560     0.999992    0.00012287
  695      -16.4072496501      -0.0000002585     0.999992    0.00012355
  696      -16.4072499111      -0.0000002611     0.999992    0.00012425
  697      -16.4072501748      -0.0000002637     0.999993    0.00012495
  698      -16.4072504411      -0.0000002663     0.999993    0.00012566
  699      -16.4072507101      -0.0000002690     0.999993    0.00012637
  700      -16.4072509818      -0.0000002717     0.999993    0.00012709
  701      -16.4072512562      -0.0000002744     0.999993    0.00012781
  702      -16.4072515334      -0.0000002772     0.999993    0.00012855
  703      -16.4072518135      -0.0000002801     0.999993    0.00012928
  704      -16.4072520964      -0.0000002829     0.999993    0.00013003
  705      -16.4072523822      -0.0000002858     0.999993    0.00013078
  706      -16.4072526710      -0.0000002888     0.999993    0.00013154
  707      -16.4072529627      -0.0000002918     0.999993    0.00013231
  708      -16.4072532575      -0.0000002948     0.999993    0.00013308
  709      -16.4072535554      -0.0000002979     0.999993    0.00013386
  710      -16.4072538564      -0.0000003010     0.999993    0.00013465
  711      -16.4072541605      -0.0000003041     0.999993    0.00013545
  712      -16.4072544678      -0.0000003073     0.999993    0.00013625
  713      -16.4072547784      -0.0000003106     0.999993    0.00013706
  714      -16.4072550923      -0.0000003139     0.999993    0.00013788
  715      -16.4072554095      -0.0000003172     0.999993    0.00013870
  716      -16.4072557301      -0.0000003206     0.999993    0.00013954
  717      -16.4072560542      -0.0000003241     0.999993    0.00014038
  718      -16.4072563818      -0.0000003276     0.999993    0.00014122
  719      -16.4072567129      -0.0000003311     0.999993    0.00014208
  720      -16.4072570475      -0.0000003347     0.999993    0.00014295
  721      -16.4072573859      -0.0000003383     0.999993    0.00014382
  722      -16.4072577279      -0.0000003420     0.999993    0.00014470
  723      -16.4072580737      -0.0000003458     0.999993    0.00014559
  724      -16.4072584233      -0.0000003496     0.999993    0.00014649
  725      -16.4072587768      -0.0000003535     0.999993    0.00014739
  726      -16.4072591342      -0.0000003574     0.999993    0.00014831
  727      -16.4072594955      -0.0000003614     0.999993    0.00014923
  728      -16.4072598609      -0.0000003654     0.999993    0.00015016
  729      -16.4072602305      -0.0000003695     0.999993    0.00015110
  730      -16.4072606041      -0.0000003737     0.999993    0.00015205
  731      -16.4072609820      -0.0000003779     0.999993    0.00015301
  732      -16.4072613642      -0.0000003822     0.999993    0.00015398
  733      -16.4072617507      -0.0000003865     0.999993    0.00015496
  734      -16.4072621417      -0.0000003909     0.999993    0.00015594
  735      -16.4072625371      -0.0000003954     0.999993    0.00015694
  736      -16.4072629371      -0.0000004000     0.999993    0.00015795
  737      -16.4072633417      -0.0000004046     0.999993    0.00015896
  738      -16.4072637510      -0.0000004093     0.999993    0.00015999
  739      -16.4072641651      -0.0000004141     0.999994    0.00016102
  740      -16.4072645840      -0.0000004189     0.999994    0.00016207
  741      -16.4072650078      -0.0000004238     0.999994    0.00016312
  742      -16.4072654366      -0.0000004288     0.999994    0.00016419
  743      -16.4072658704      -0.0000004339     0.999994    0.00016526
  744      -16.4072663094      -0.0000004390     0.999994    0.00016635
  745      -16.4072667536      -0.0000004442     0.999994    0.00016745
  746      -16.4072672031      -0.0000004495     0.999994    0.00016856
  747      -16.4072676580      -0.0000004549     0.999994    0.00016967
  748      -16.4072681184      -0.0000004604     0.999994    0.00017080
  749      -16.4072685843      -0.0000004659     0.999994    0.00017194
  750      -16.4072690559      -0.0000004716     0.999994    0.00017309
  751      -16.4072695332      -0.0000004773     0.999994    0.00017426
  752      -16.4072700163      -0.0000004831     0.999994    0.00017543
  753      -16.4072705053      -0.0000004890     0.999994    0.00017662
  754      -16.4072710004      -0.0000004950     0.999994    0.00017781
  755      -16.4072715015      -0.0000005011     0.999994    0.00017902
  756      -16.4072720088      -0.0000005073     0.999994    0.00018024
  757      -16.4072725224      -0.0000005136     0.999994    0.00018148
  758      -16.4072730424      -0.0000005200     0.999994    0.00018272
  759      -16.4072735690      -0.0000005265     0.999994    0.00018398
  760      -16.4072741021      -0.0000005331     0.999994    0.00018525
  761      -16.4072746419      -0.0000005398     0.999994    0.00018653
  762      -16.4072751886      -0.0000005466     0.999994    0.00018782
  763      -16.4072757421      -0.0000005536     0.999994    0.00018913
  764      -16.4072763027      -0.0000005606     0.999994    0.00019045
  765      -16.4072768705      -0.0000005678     0.999994    0.00019178
  766      -16.4072774455      -0.0000005750     0.999994    0.00019313
  767      -16.4072780280      -0.0000005824     0.999994    0.00019449
  768      -16.4072786179      -0.0000005899     0.999994    0.00019586
  769      -16.4072792154      -0.0000005976     0.999994    0.00019725
  770      -16.4072798208      -0.0000006053     0.999994    0.00019865
  771      -16.4072804339      -0.0000006132     0.999994    0.00020006
  772      -16.4072810551      -0.0000006212     0.999994    0.00020149
  773      -16.4072816845      -0.0000006293     0.999995    0.00020293
  774      -16.4072823221      -0.0000006376     0.999995    0.00020439
  775      -16.4072829682      -0.0000006460     0.999995    0.00020586
  776      -16.4072836227      -0.0000006546     0.999995    0.00020734
  777      -16.4072842860      -0.0000006633     0.999995    0.00020884
  778      -16.4072849581      -0.0000006721     0.999995    0.00021035
  779      -16.4072856393      -0.0000006811     0.999995    0.00021188
  780      -16.4072863295      -0.0000006902     0.999995    0.00021343
  781      -16.4072870290      -0.0000006995     0.999995    0.00021499
  782      -16.4072877380      -0.0000007090     0.999995    0.00021656
  783      -16.4072884566      -0.0000007186     0.999995    0.00021815
  784      -16.4072891849      -0.0000007283     0.999995    0.00021975
  785      -16.4072899231      -0.0000007382     0.999995    0.00022137
  786      -16.4072906715      -0.0000007483     0.999995    0.00022301
  787      -16.4072914301      -0.0000007586     0.999995    0.00022466
  788      -16.4072921991      -0.0000007690     0.999995    0.00022633
  789      -16.4072929787      -0.0000007796     0.999995    0.00022801
  790      -16.4072937692      -0.0000007904     0.999995    0.00022971
  791      -16.4072945705      -0.0000008014     0.999995    0.00023143
  792      -16.4072953831      -0.0000008125     0.999995    0.00023316
  793      -16.4072962070      -0.0000008239     0.999995    0.00023491
  794      -16.4072970424      -0.0000008354     0.999995    0.00023668
  795      -16.4072978895      -0.0000008471     0.999995    0.00023846
  796      -16.4072987486      -0.0000008591     0.999995    0.00024026
  797      -16.4072996198      -0.0000008712     0.999995    0.00024208
  798      -16.4073005033      -0.0000008835     0.999995    0.00024391
  799      -16.4073013994      -0.0000008961     0.999995    0.00024576
  800      -16.4073023082      -0.0000009088     0.999995    0.00024763
  801      -16.4073032300      -0.0000009218     0.999995    0.00024952
  802      -16.4073041650      -0.0000009350     0.999996    0.00025142
  803      -16.4073051134      -0.0000009484     0.999996    0.00025334
  804      -16.4073060754      -0.0000009620     0.999996    0.00025528
  805      -16.4073070513      -0.0000009759     0.999996    0.00025724
  806      -16.4073080413      -0.0000009900     0.999996    0.00025921
  807      -16.4073090457      -0.0000010044     0.999996    0.00026121
  808      -16.4073100647      -0.0000010190     0.999996    0.00026322
  809      -16.4073110985      -0.0000010338     0.999996    0.00026524
  810      -16.4073121474      -0.0000010489     0.999996    0.00026729
  811      -16.4073132116      -0.0000010642     0.999996    0.00026935
  812      -16.4073142915      -0.0000010798     0.999996    0.00027144
  813      -16.4073153872      -0.0000010957     0.999996    0.00027354
  814      -16.4073164990      -0.0000011118     0.999996    0.00027565
  815      -16.4073176273      -0.0000011283     0.999996    0.00027779
  816      -16.4073187722      -0.0000011449     0.999996    0.00027995
  817      -16.4073199341      -0.0000011619     0.999996    0.00028212
  818      -16.4073211133      -0.0000011792     0.999996    0.00028431
  819      -16.4073223100      -0.0000011967     0.999996    0.00028652
  820      -16.4073235245      -0.0000012145     0.999996    0.00028874
  821      -16.4073247572      -0.0000012327     0.999996    0.00029099
  822      -16.4073260083      -0.0000012511     0.999996    0.00029325
  823      -16.4073272781      -0.0000012698     0.999996    0.00029553
  824      -16.4073285670      -0.0000012889     0.999996    0.00029783
  825      -16.4073298752      -0.0000013082     0.999996    0.00030015
  826      -16.4073312031      -0.0000013279     0.999996    0.00030248
  827      -16.4073325510      -0.0000013479     0.999996    0.00030483
  828      -16.4073339193      -0.0000013683     0.999997    0.00030720
  829      -16.4073353082      -0.0000013889     0.999997    0.00030959
  830      -16.4073367181      -0.0000014099     0.999997    0.00031199
  831      -16.4073381493      -0.0000014312     0.999997    0.00031441
  832      -16.4073396023      -0.0000014529     0.999997    0.00031684
  833      -16.4073410772      -0.0000014750     0.999997    0.00031929
  834      -16.4073425746      -0.0000014973     0.999997    0.00032176
  835      -16.4073440946      -0.0000015201     0.999997    0.00032425
  836      -16.4073456378      -0.0000015432     0.999997    0.00032675
  837      -16.4073472044      -0.0000015666     0.999997    0.00032926
  838      -16.4073487949      -0.0000015904     0.999997    0.00033179
  839      -16.4073504095      -0.0000016146     0.999997    0.00033433
  840      -16.4073520487      -0.0000016392     0.999997    0.00033689
  841      -16.4073537128      -0.0000016641     0.999997    0.00033946
  842      -16.4073554023      -0.0000016894     0.999997    0.00034205
  843      -16.4073571174      -0.0000017151     0.999997    0.00034464
  844      -16.4073588587      -0.0000017412     0.999997    0.00034725
  845      -16.4073606264      -0.0000017677     0.999997    0.00034988
  846      -16.4073624209      -0.0000017945     0.999997    0.00035251
  847      -16.4073642427      -0.0000018218     0.999997    0.00035515
  848      -16.4073660921      -0.0000018494     0.999997    0.00035781
  849      -16.4073679695      -0.0000018774     0.999997    0.00036047
  850      -16.4073698753      -0.0000019058     0.999997    0.00036314
  851      -16.4073718100      -0.0000019346     0.999997    0.00036582
  852      -16.4073737738      -0.0000019638     0.999997    0.00036851
  853      -16.4073757673      -0.0000019934     0.999998    0.00037120
  854      -16.4073777907      -0.0000020234     0.999998    0.00037390
  855      -16.4073798445      -0.0000020538     0.999998    0.00037660
  856      -16.4073819291      -0.0000020846     0.999998    0.00037931
  857      -16.4073840448      -0.0000021157     0.999998    0.00038202
  858      -16.4073861921      -0.0000021473     0.999998    0.00038473
  859      -16.4073883713      -0.0000021792     0.999998    0.00038744
  860      -16.4073905828      -0.0000022115     0.999998    0.00039016
  861      -16.4073928270      -0.0000022442     0.999998    0.00039287
  862      -16.4073951042      -0.0000022772     0.999998    0.00039558
  863      -16.4073974149      -0.0000023107     0.999998    0.00039828
  864      -16.4073997593      -0.0000023444     0.999998    0.00040098
  865      -16.4074021379      -0.0000023786     0.999998    0.00040367
  866      -16.4074045509      -0.0000024131     0.999998    0.00040636
  867      -16.4074069988      -0.0000024479     0.999998    0.00040903
  868      -16.4074094818      -0.0000024830     0.999998    0.00041170
  869      -16.4074120003      -0.0000025185     0.999998    0.00041435
  870      -16.4074145546      -0.0000025543     0.999998    0.00041699
  871      -16.4074171450      -0.0000025904     0.999998    0.00041962
  872      -16.4074197717      -0.0000026267     0.999998    0.00042222
  873      -16.4074224351      -0.0000026634     0.999998    0.00042481
  874      -16.4074251353      -0.0000027003     0.999998    0.00042738
  875      -16.4074278727      -0.0000027374     0.999998    0.00042992
  876      -16.4074306475      -0.0000027748     0.999998    0.00043244
  877      -16.4074334599      -0.0000028124     0.999998    0.00043494
  878      -16.4074363101      -0.0000028502     0.999998    0.00043740
  879      -16.4074391982      -0.0000028881     0.999998    0.00043984
  880      -16.4074421244      -0.0000029262     0.999998    0.00044224
  881      -16.4074450889      -0.0000029645     0.999999    0.00044461
  882      -16.4074480917      -0.0000030028     0.999999    0.00044694
  883      -16.4074511330      -0.0000030413     0.999999    0.00044923
  884      -16.4074542127      -0.0000030798     0.999999    0.00045148
  885      -16.4074573310      -0.0000031183     0.999999    0.00045368
  886      -16.4074604879      -0.0000031568     0.999999    0.00045584
  887      -16.4074636833      -0.0000031954     0.999999    0.00045795
  888      -16.4074669171      -0.0000032338     0.999999    0.00046001
  889      -16.4074701893      -0.0000032722     0.999999    0.00046201
  890      -16.4074734998      -0.0000033105     0.999999    0.00046396
  891      -16.4074768484      -0.0000033486     0.999999    0.00046585
  892      -16.4074802349      -0.0000033865     0.999999    0.00046767
  893      -16.4074836591      -0.0000034242     0.999999    0.00046943
  894      -16.4074871208      -0.0000034617     0.999999    0.00047112
  895      -16.4074906196      -0.0000034988     0.999999    0.00047274
  896      -16.4074941552      -0.0000035356     0.999999    0.00047429
  897      -16.4074977272      -0.0000035720     0.999999    0.00047577
  898      -16.4075013352      -0.0000036080     0.999999    0.00047716
  899      -16.4075049787      -0.0000036435     0.999999    0.00047847
  900      -16.4075086572      -0.0000036785     0.999999    0.00047970
  901      -16.4075123702      -0.0000037130     0.999999    0.00048084
  902      -16.4075161169      -0.0000037468     0.999999    0.00048189
  903      -16.4075198969      -0.0000037800     0.999999    0.00048285
  904      -16.4075237093      -0.0000038124     0.999999    0.00048371
  905      -16.4075275535      -0.0000038441     0.999999    0.00048447
  906      -16.4075314285      -0.0000038751     0.999999    0.00048513
  907      -16.4075353336      -0.0000039051     0.999999    0.00048569
  908      -16.4075392679      -0.0000039342     0.999999    0.00048614
  909      -16.4075432303      -0.0000039624     0.999999    0.00048649
  910      -16.4075472199      -0.0000039896     0.999999    0.00048672
  911      -16.4075512356      -0.0000040157     0.999999    0.00048684
  912      -16.4075552763      -0.0000040407     0.999999    0.00048684
  913      -16.4075593409      -0.0000040645     0.999999    0.00048672
  914      -16.4075634280      -0.0000040871     0.999999    0.00048648
  915      -16.4075675365      -0.0000041085     0.999999    0.00048612
  916      -16.4075716650      -0.0000041285     0.999999    0.00048563
  917      -16.4075758121      -0.0000041471     0.999999    0.00048502
  918      -16.4075799765      -0.0000041644     0.999999    0.00048428
  919      -16.4075841566      -0.0000041801     0.999999    0.00048341
  920      -16.4075883510      -0.0000041944     0.999999    0.00048241
  921      -16.4075925581      -0.0000042071     0.999999    0.00048127
  922      -16.4075967763      -0.0000042182     1.000000    0.00048000
  923      -16.4076010040      -0.0000042277     1.000000    0.00047860
  924      -16.4076052394      -0.0000042354     1.000000    0.00047706
  925      -16.4076094809      -0.0000042415     1.000000    0.00047616
  926      -16.4076137268      -0.0000042458     1.000000    0.00047550
  927      -16.4076179751      -0.0000042483     1.000000    0.00047470
  928      -16.4076222241      -0.0000042490     1.000000    0.00047378
  929      -16.4076264720      -0.0000042479     1.000000    0.00047273
  930      -16.4076307170      -0.0000042449     1.000000    0.00047156
  931      -16.4076349570      -0.0000042400     1.000000    0.00047026
  932      -16.4076391903      -0.0000042333     1.000000    0.00046883
  933      -16.4076434148      -0.0000042246     1.000000    0.00046727
  934      -16.4076476287      -0.0000042139     1.000000    0.00046558
  935      -16.4076518301      -0.0000042014     1.000000    0.00046377
  936      -16.4076560169      -0.0000041869     1.000000    0.00046182
  937      -16.4076601873      -0.0000041704     1.000000    0.00045976
  938      -16.4076643394      -0.0000041520     1.000000    0.00045756
  939      -16.4076684711      -0.0000041317     1.000000    0.00045524
  940      -16.4076725807      -0.0000041095     1.000000    0.00045280
  941      -16.4076766661      -0.0000040854     1.000000    0.00045024
  942      -16.4076807255      -0.0000040594     1.000000    0.00044755
  943      -16.4076847571      -0.0000040316     1.000000    0.00044475
  944      -16.4076887590      -0.0000040019     1.000000    0.00044183
  945      -16.4076927294      -0.0000039704     1.000000    0.00043879
  946      -16.4076966667      -0.0000039372     1.000000    0.00043565
  947      -16.4077005689      -0.0000039023     1.000000    0.00043239
  948      -16.4077044346      -0.0000038657     1.000000    0.00042903
  949      -16.4077082620      -0.0000038274     1.000000    0.00042556
  950      -16.4077120496      -0.0000037876     1.000000    0.00042199
  951      -16.4077157958      -0.0000037462     1.000000    0.00041833
  952      -16.4077194991      -0.0000037034     1.000000    0.00041457
  953      -16.4077231582      -0.0000036591     1.000000    0.00041072
  954      -16.4077267717      -0.0000036135     1.000000    0.00040678
  955      -16.4077303382      -0.0000035666     1.000000    0.00040275
  956      -16.4077338566      -0.0000035184     1.000000    0.00039865
  957      -16.4077373257      -0.0000034691     1.000000    0.00039447
  958      -16.4077407445      -0.0000034187     1.000000    0.00039021
  959      -16.4077441117      -0.0000033673     1.000000    0.00038589
  960      -16.4077474267      -0.0000033149     1.000000    0.00038151
  961      -16.4077506883      -0.0000032617     1.000000    0.00037706
  962      -16.4077538960      -0.0000032076     1.000000    0.00037255
  963      -16.4077570488      -0.0000031529     1.000000    0.00036800
  964      -16.4077601463      -0.0000030974     1.000000    0.00036339
  965      -16.4077631877      -0.0000030414     1.000000    0.00035874
  966      -16.4077661726      -0.0000029849     1.000000    0.00035405
  967      -16.4077691005      -0.0000029280     1.000000    0.00034933
  968      -16.4077719712      -0.0000028707     1.000000    0.00034457
  969      -16.4077747842      -0.0000028131     1.000000    0.00033978
  970      -16.4077775395      -0.0000027553     1.000000    0.00033498
  971      -16.4077802369      -0.0000026973     1.000000    0.00033015
  972      -16.4077828762      -0.0000026393     1.000000    0.00032530
  973      -16.4077854575      -0.0000025813     1.000000    0.00032045
  974      -16.4077879809      -0.0000025234     1.000000    0.00031559
  975      -16.4077904464      -0.0000024655     1.000000    0.00031072
  976      -16.4077928543      -0.0000024079     1.000000    0.00030585
  977      -16.4077952049      -0.0000023505     1.000000    0.00030099
  978      -16.4077974983      -0.0000022935     1.000000    0.00029613
  979      -16.4077997351      -0.0000022367     1.000000    0.00029128
  980      -16.4078019155      -0.0000021805     1.000000    0.00028645
  981      -16.4078040402      -0.0000021246     1.000000    0.00028163
  982      -16.4078061095      -0.0000020693     1.000000    0.00027683
  983      -16.4078081241      -0.0000020146     1.000000    0.00027206
  984      -16.4078100845      -0.0000019604     1.000000    0.00026731
  985      -16.4078119914      -0.0000019069     1.000000    0.00026259
  986      -16.4078138455      -0.0000018541     1.000000    0.00025790
  987      -16.4078156475      -0.0000018020     1.000000    0.00025324
  988      -16.4078173982      -0.0000017507     1.000000    0.00024862
  989      -16.4078190982      -0.0000017001     1.000000    0.00024403
  990      -16.4078207486      -0.0000016503     1.000000    0.00023949
  991      -16.4078223500      -0.0000016014     1.000000    0.00023498
  992      -16.4078239033      -0.0000015533     1.000000    0.00023052
  993      -16.4078254094      -0.0000015061     1.000000    0.00022611
  994      -16.4078268692      -0.0000014598     1.000000    0.00022174
  995      -16.4078282836      -0.0000014144     1.000000    0.00021742
  996      -16.4078296535      -0.0000013699     1.000000    0.00021315
  997      -16.4078309799      -0.0000013264     1.000000    0.00020894
  998      -16.4078322636      -0.0000012837     1.000000    0.00020477
  999      -16.4078335057      -0.0000012421     1.000000    0.00020066
 1000      -16.4078347070      -0.0000012014     1.000000    0.00019660

Total Energy:                      -16.4078347070 H         -446.4799 eV
Extrapolated to 0:                 -16.3651721487 H         -445.3190 eV

----------------------------------------------------------------------------------
 Solving CP-REKS equation for  1 state vector...
----------------------------------------------------------------------------------
  CG solver: Constructing Y initial guess
  CG solver: Iteration    1    eps =    0.031936193086
  CG solver: Iteration    2    eps =    0.009391733479
  CG solver: Iteration    3    eps =    0.017605598982
  CG solver: Iteration    4    eps =    0.031397985537
  CG solver: Iteration    5    eps =    0.010091647461
  CG solver: Iteration    6    eps =    0.002594851237
  CG solver: Iteration    7    eps =    0.001276789990
  CG solver: Iteration    8    eps =    0.000128517168
  CG solver: Iteration    9    eps =    0.000034544800
  CG solver: Iteration   10    eps =    0.000005153311
  CG solver: Iteration   11    eps =    0.000001464280
  CG solver: Iteration   12    eps =    0.000000452134
  CG solver: Iteration   13    eps =    0.000000052226
  CG solver: Iteration   14    eps =    0.000000005342
  Convergence reached in CG solver after   14 iterations
  CG solver: Calculating converged R, Z, Q2 matrix
----------------------------------------------------------------------------------

----------------------------------------------------------------------------------
 Solving CP-REKS equation for SI between  1 and  2 state vectors...
----------------------------------------------------------------------------------
  CG solver: Constructing Y initial guess
  CG solver: Iteration    1    eps =    0.014324627182
  CG solver: Iteration    2    eps =    0.001399783265
  CG solver: Iteration    3    eps =    0.000449859725
  CG solver: Iteration    4    eps =    0.002663659544
  CG solver: Iteration    5    eps =    0.001402690144
  CG solver: Iteration    6    eps =    0.000665520195
  CG solver: Iteration    7    eps =    0.000376982785
  CG solver: Iteration    8    eps =    0.000059927748
  CG solver: Iteration    9    eps =    0.000008187405
  CG solver: Iteration   10    eps =    0.000002821080
  CG solver: Iteration   11    eps =    0.000000469176
  CG solver: Iteration   12    eps =    0.000000073051
  CG solver: Iteration   13    eps =    0.000000008106
  Convergence reached in CG solver after   13 iterations
  CG solver: Calculating converged R, Z, Q2 matrix
----------------------------------------------------------------------------------

--------------------------------------------------
 Gradient Information
--------------------------------------------------
           1 st state (SSR)
     0.00000000     0.00000000     0.00000000
     0.00000000     0.00000000     0.00000000
     0.00000000     0.00000000     0.00000000
     0.00000000     0.00000000     0.00000000
     0.00000000     0.00000000     0.00000000
     0.00000000     0.00000000     0.00000000
     0.00000000     0.00000000     0.00000000
     0.00000000     0.00000000     0.00000000
     0.00000000     0.00000000     0.00000000
     0.00000000     0.00000000     0.00000000
     0.00000000     0.00000000     0.00000000
     0.00000000     0.00000000     0.00000000
     0.00000000     0.00000000     0.00000000
     0.00000000     0.00000000     0.00000000

           2 st state (SSR)
     0.00000000     0.00000000     0.00000000
     0.00000000     0.00000000     0.00000000
     0.00000000     0.00000000     0.00000000
     0.00000000     0.00000000     0.00000000
     0.00000000     0.00000000     0.00000000
     0.00000000     0.00000000     0.00000000
     0.00000000     0.00000000     0.00000000
     0.00000000     0.00000000     0.00000000
     0.00000000     0.00000000     0.00000000
     0.00000000     0.00000000     0.00000000
     0.00000000     0.00000000     0.00000000
     0.00000000     0.00000000     0.00000000
     0.00000000     0.00000000     0.00000000
     0.00000000     0.00000000     0.00000000
--------------------------------------------------
 Coupling Information
--------------------------------------------------
 between  1 and  2 states
--------------------------------------------------
 g vector - difference gradient
     0.24696042    -0.02894576     0.01057211
    -0.20743293    -0.10258413    -0.01389931
     0.02876292    -0.01953691     0.00044243
     0.00215953     0.02542124     0.00703016
    -0.16030991     0.15586280     0.07512000
    -0.14917771     0.03254807    -0.15076095
     0.27889504    -0.16824707    -0.24383449
    -0.00516982    -0.00129322     0.04970171
    -0.11477961     0.05181378     0.19684690
     0.10656122     0.02902176     0.01112314
     0.02761465    -0.00313287    -0.02064709
    -0.07134169     0.03183998    -0.01196758
     0.02687581     0.03782270    -0.00435281
    -0.00961793    -0.04059037     0.09462579

 h vector - derivative coupling
     0.04502917     0.01049734     0.02243615
    -0.02986535    -0.03274648    -0.04017915
    -0.00519354     0.00994391     0.00389603
     0.00442239    -0.00451566    -0.00378033
    -0.01345807     0.01699198     0.00910327
    -0.02786618     0.02079691    -0.00544353
     0.02444534    -0.02985410    -0.02205291
     0.00239125    -0.00450807     0.02036966
     0.00177470     0.00226921     0.01560263
    -0.00377257     0.01377980    -0.00039995
     0.00093196     0.00067712     0.00194013
    -0.00106515    -0.00264839    -0.00248618
     0.00124475     0.00123355     0.00045608
     0.00098130    -0.00191711     0.00053809

 G vector - GDV
     0.00000000     0.00000000     0.00000000
     0.00000000     0.00000000     0.00000000
     0.00000000     0.00000000     0.00000000
     0.00000000     0.00000000     0.00000000
     0.00000000     0.00000000     0.00000000
     0.00000000     0.00000000     0.00000000
     0.00000000     0.00000000     0.00000000
     0.00000000     0.00000000     0.00000000
     0.00000000     0.00000000     0.00000000
     0.00000000     0.00000000     0.00000000
     0.00000000     0.00000000     0.00000000
     0.00000000     0.00000000     0.00000000
     0.00000000     0.00000000     0.00000000
     0.00000000     0.00000000     0.00000000

 H vector - DCV - non-adiabatic coupling
     0.00000000     0.00000000     0.00000000
     0.00000000     0.00000000     0.00000000
     0.00000000     0.00000000     0.00000000
     0.00000000     0.00000000     0.00000000
     0.00000000     0.00000000     0.00000000
     0.00000000     0.00000000     0.00000000
     0.00000000     0.00000000     0.00000000
     0.00000000     0.00000000     0.00000000
     0.00000000     0.00000000     0.00000000
     0.00000000     0.00000000     0.00000000
     0.00000000     0.00000000     0.00000000
     0.00000000     0.00000000     0.00000000
     0.00000000     0.00000000     0.00000000
     0.00000000     0.00000000     0.00000000
--------------------------------------------------

WARNING!
-> SCC is NOT converged, maximal SCC iterations exceeded

--------------------------------------------------------------------------------
DFTB+ running times                          cpu [s]             wall clock [s]
--------------------------------------------------------------------------------
SCC                                    +     1.52  ( 81.2%)      1.53  ( 81.1%)
      Sparse to dense                        0.07  (  3.7%)      0.08  (  4.0%)
      Dense to sparse                        0.24  ( 12.9%)      0.24  ( 12.9%)
      Range separated Hamiltonian            0.12  (  6.6%)      0.13  (  6.8%)
  Density matrix creation                    0.15  (  8.1%)      0.16  (  8.3%)
  Force calculation                          0.35  ( 18.6%)      0.35  ( 18.6%)
--------------------------------------------------------------------------------
Missing                                +     0.35  ( 18.8%)      0.36  ( 18.9%)
Total                                  =     1.88  (100.0%)      1.88  (100.0%)
--------------------------------------------------------------------------------
