|===============================================================================
|
|  DFTB+ release 20.1
|
|  Copyright (C) 2006 - 2020  DFTB+ developers group
|
|===============================================================================
|
|  When publishing results obtained with DFTB+, please cite the following
|  reference:
|
|  * DFTB+, a software package for efficient approximate density functional
|    theory based atomistic simulations, J. Chem. Phys. 152, 124101 (2020).
|    [doi: 10.1063/1.5143190]
|
|  You should also cite additional publications crediting the parametrization
|  data you use. Please consult the documentation of the SK-files for the
|  references.
|
|===============================================================================

Reading input file 'dftb_in.hsd'
Parser version: 8

--------------------------------------------------------------------------------
Reading SK-files:
Done.


Processed input in HSD format written to 'dftb_pin.hsd'

Starting initialization...
--------------------------------------------------------------------------------
OpenMP threads:              1
Chosen random seed:          509977419
Mode:                        Static calculation
Self consistent charges:     Yes
SCC-tolerance:                 0.100000E-05
Max. scc iterations:                   1000
Shell resolved Hubbard:      No
Spin polarisation:           No
Nr. of up electrons:             6.000000
Nr. of down electrons:           6.000000
Periodic boundaries:         No
Electronic solver:           Relatively robust
Maximal SCC-cycles:                    1000
Initial charges:             Set automatically (system chrg:   0.100E+01)
Included shells:             C:  s, p
                             N:  s, p
                             H:  s
Spin coupling constants:     C   1(s)-1(s):  -0.455900E-01
                             C   1(s)-2(p):  -0.293000E-01
                             C   2(p)-1(s):  -0.293000E-01
                             C   2(p)-2(p):  -0.275500E-01
                             N   1(s)-1(s):  -0.468700E-01
                             N   1(s)-2(p):  -0.317000E-01
                             N   2(p)-1(s):  -0.317000E-01
                             N   2(p)-2(p):  -0.307200E-01
                             H   1(s)-1(s):  -0.792500E-01
Range separated hybrid:      Yes
  Screening parameter omega:   0.300000E+00
  Range separated algorithm:   MatrixBased
Extra options:
                             Mulliken analysis
                             Force calculation
Force type                   original
                             Eigenvector printing


REKS Calcuation:             Yes
SSR(2,2) Calcuation:         Yes
Energy Functional:           (PPS+OSS)/2
Number of Core Orbitals:                  5
Number of Active Orbitals:                2
Number of Basis:                         12
Number of States:                         2
State-Averaging Weight:          0.500000
                                 0.500000
State of Interest:                        1
Initial Guess:               Diagonalize H0 matrix
Newton-Raphson for FON opt:  Yes
NR max. Iterations:                      50
Level Shifting:              Yes
Shift Value:                     0.300000
W Scale Factor:              C  =    3.000000
                             N  =    3.000000
                             H  =    3.000000
Transition Dipole:           No
Gradient of Microstate:      No
CP-REKS Solver:              Preconditioned Conjugate-Gradient
CG max. Iterations:                     100
CG Tolerance:                  0.100000E-07
Memory for A and Hxc:        Direct Updating Without Saving
Non-Adiabatic Coupling:      Yes

--------------------------------------------------------------------------------

***  Geometry step: 0

  iSCC       reks energy        Diff energy         x_a       SCC error   
    1       -6.2596064284       0.0000000000     0.999121    1.18321307
    2       -6.2739721071      -0.0143656786     0.999660    0.10905104
    3       -6.2788332784      -0.0048611713     0.999818    0.05188226
    4       -6.2816339663      -0.0028006879     0.999886    0.02637190
    5       -6.2835474800      -0.0019135137     0.999920    0.01363117
    6       -6.2849299713      -0.0013824913     0.999938    0.01119539
    7       -6.2859289412      -0.0009989699     0.999949    0.01006756
    8       -6.2866338211      -0.0007048799     0.999956    0.00911758
    9       -6.2871164862      -0.0004826651     0.999960    0.00796517
   10       -6.2874378748      -0.0003213886     0.999962    0.00679090
   11       -6.2876470590      -0.0002091842     0.999964    0.00569358
   12       -6.2877809293      -0.0001338703     0.999965    0.00471939
   13       -6.2878656192      -0.0000846899     0.999966    0.00388196
   14       -6.2879188203      -0.0000532010     0.999966    0.00317682
   15       -6.2879521231      -0.0000333028     0.999966    0.00259091
   16       -6.2879729517      -0.0000208286     0.999966    0.00210821
   17       -6.2879859915      -0.0000130398     0.999966    0.00171271
   18       -6.2879941736      -0.0000081820     0.999966    0.00138982
   19       -6.2879993229      -0.0000051494     0.999966    0.00112684
   20       -6.2880025747      -0.0000032517     0.999966    0.00091301
   21       -6.2880046352      -0.0000020606     0.999966    0.00073935
   22       -6.2880059454      -0.0000013102     0.999966    0.00059844
   23       -6.2880067811      -0.0000008357     0.999966    0.00048419
   24       -6.2880073157      -0.0000005346     0.999966    0.00039161
   25       -6.2880076585      -0.0000003429     0.999966    0.00031664
   26       -6.2880078789      -0.0000002204     0.999966    0.00025594
   27       -6.2880080208      -0.0000001419     0.999966    0.00020683
   28       -6.2880081124      -0.0000000916     0.999966    0.00016710
   29       -6.2880081716      -0.0000000591     0.999966    0.00013498
   30       -6.2880082098      -0.0000000383     0.999966    0.00010909
   31       -6.2880082346      -0.0000000248     0.999966    0.00008852
   32       -6.2880082506      -0.0000000160     0.999966    0.00007177
   33       -6.2880082610      -0.0000000104     0.999966    0.00005816
   34       -6.2880082678      -0.0000000067     0.999966    0.00004711
   35       -6.2880082721      -0.0000000044     0.999966    0.00003814
   36       -6.2880082750      -0.0000000028     0.999966    0.00003086
   37       -6.2880082768      -0.0000000018     0.999966    0.00002497
   38       -6.2880082780      -0.0000000012     0.999966    0.00002019
   39       -6.2880082788      -0.0000000008     0.999966    0.00001632
   40       -6.2880082793      -0.0000000005     0.999966    0.00001319
   41       -6.2880082796      -0.0000000003     0.999966    0.00001066
   42       -6.2880082799      -0.0000000002     0.999966    0.00000861
   43       -6.2880082800      -0.0000000001     0.999966    0.00000695
   44       -6.2880082801      -0.0000000001     0.999966    0.00000562
   45       -6.2880082801      -0.0000000001     0.999966    0.00000453
   46       -6.2880082802      -0.0000000000     0.999966    0.00000366
   47       -6.2880082802      -0.0000000000     0.999966    0.00000296
   48       -6.2880082802      -0.0000000000     0.999966    0.00000239
   49       -6.2880082802      -0.0000000000     0.999966    0.00000193
   50       -6.2880082802      -0.0000000000     0.999966    0.00000155
   51       -6.2880082802      -0.0000000000     0.999966    0.00000125
   52       -6.2880082802      -0.0000000000     0.999966    0.00000101
   53       -6.2880082802      -0.0000000000     0.999966    0.00000082
  
--------------------------------------------------
 Final SA-REKS(2,2) energy:      -6.28800828
  
 State     Energy      FON(1)    FON(2)   Spin
  PPS   -6.41670170   1.999932  0.000068  0.00
  OSS   -6.15931486   1.000000  1.000000  0.00
 Trip   -6.23849604   1.000000  1.000000  1.00
--------------------------------------------------

 Lagrangian Wab:   0.00257963  0.00257954

--------------------------------------------------
 SSR: 2SI-2SA-REKS(2,2) Hamiltonian matrix
               PPS           OSS
   PPS    -6.41670170    0.00362679
   OSS     0.00362679   -6.15931486
--------------------------------------------------

----------------------------------------------------------------
 SSR: 2SI-2SA-REKS(2,2) states
                    E_n       C_{PPS}    C_{OSS}
 SSR state  1   -6.41675279  -0.999901   0.014087
 SSR state  2   -6.15926377  -0.014087  -0.999901
----------------------------------------------------------------

 unrelaxed SSR FONs for S0:  1.999733  0.000267

Total Energy:                       -6.4167527923 H         -174.6087 eV
Extrapolated to 0:                  -6.4167527923 H         -174.6087 eV

----------------------------------------------------------------------------------
 Solving CP-REKS equation for  1 state vector...
----------------------------------------------------------------------------------
  CG solver: Constructing Y initial guess
  CG solver: Iteration    1    eps =    0.000044305129
  CG solver: Iteration    2    eps =    0.000008448484
  CG solver: Iteration    3    eps =    0.000000391391
  CG solver: Iteration    4    eps =    0.000000069127
  CG solver: Iteration    5    eps =    0.000000006582
  Convergence reached in CG solver after    5 iterations
  CG solver: Calculating converged R, Z, Q2 matrix
----------------------------------------------------------------------------------

----------------------------------------------------------------------------------
 Solving CP-REKS equation for SI between  1 and  2 state vectors...
----------------------------------------------------------------------------------
  CG solver: Constructing Y initial guess
  CG solver: Iteration    1    eps =    0.000770321923
  CG solver: Iteration    2    eps =    0.000730002130
  CG solver: Iteration    3    eps =    0.000168599051
  CG solver: Iteration    4    eps =    0.000002353465
  CG solver: Iteration    5    eps =    0.000000340099
  CG solver: Iteration    6    eps =    0.000000009404
  Convergence reached in CG solver after    6 iterations
  CG solver: Calculating converged R, Z, Q2 matrix
----------------------------------------------------------------------------------

--------------------------------------------------
 Gradient Information
--------------------------------------------------
           1 st state (SSR)
    -0.00366382     0.00243108    -0.01576058
     0.00993835    -0.00776181     0.01332617
    -0.00571759    -0.00035751    -0.00166492
    -0.00988506     0.00038963    -0.00069113
     0.00308161     0.00424187     0.00345295
     0.00624651     0.00105673     0.00133751

           2 st state (SSR)
     0.00339091    -0.00137317     0.08193934
    -0.00595943     0.00040882    -0.10190457
     0.00382883     0.01226662     0.01770809
     0.00791584    -0.00532550    -0.00886915
    -0.00413833     0.00944973    -0.00691388
    -0.00503782    -0.01542650     0.01804018
--------------------------------------------------
 Coupling Information
--------------------------------------------------
 between  1 and  2 states
--------------------------------------------------
 g vector - difference gradient
    -0.00351931     0.00187451    -0.04898800
     0.00795637    -0.00401856     0.05769847
    -0.00497585    -0.00632152    -0.00967801
    -0.00912630     0.00278471     0.00409366
     0.00381912    -0.00259084     0.00521742
     0.00584598     0.00827170    -0.00834353

 h vector - derivative coupling
     0.00033564    -0.00100663    -0.00421022
     0.00015345     0.00242617     0.00213696
    -0.00712328    -0.00024649     0.00043781
    -0.00788881    -0.00262555     0.00010725
     0.00737050     0.00050129     0.00113367
     0.00715250     0.00095120     0.00039453

 G vector - GDV
    -0.00352737     0.00190213    -0.04884996
     0.00794889    -0.00408531     0.05761537
    -0.00477321    -0.00631207    -0.00968650
    -0.00890045     0.00285757     0.00408901
     0.00360997    -0.00260393     0.00518342
     0.00564217     0.00824162    -0.00835134

 H vector - DCV - non-adiabatic coupling
     0.00091798    -0.00370276    -0.02170409
     0.00146616     0.00897905     0.01460841
    -0.02819781    -0.00164850     0.00064083
    -0.03162376    -0.00988805     0.00086421
     0.02903098     0.00166262     0.00497184
     0.02840645     0.00459764     0.00061880
--------------------------------------------------


--------------------------------------------------------------------------------
DFTB+ running times                          cpu [s]             wall clock [s]
--------------------------------------------------------------------------------
SCC                                    +     0.02  ( 68.1%)      0.03  ( 62.2%)
Post-SCC processing                    +     0.01  ( 28.2%)      0.01  ( 24.4%)
  Force calculation                          0.01  ( 27.6%)      0.01  ( 22.2%)
--------------------------------------------------------------------------------
Missing                                +     0.00  (  3.7%)      0.01  ( 13.3%)
Total                                  =     0.03  (100.0%)      0.05  (100.0%)
--------------------------------------------------------------------------------
