     6
  Step:   300            Position(A)                                  Velocity(au)
C        -0.05037834     0.02909102     0.02904104     0.00005250     0.00002499     0.00008741
N        -0.05033818    -0.05723796     1.28786158    -0.00017625    -0.00003567    -0.00008497
H         0.05268998    -0.91876082    -0.49798768    -0.00179175     0.00007282    -0.00034190
H         0.11411061     0.71330230     1.93692870    -0.00080019    -0.00030959     0.00055668
H         0.12302543    -0.96827477     1.74554149     0.00278779     0.00063113     0.00041446
H        -0.20293481     0.95270325    -0.53507731     0.00162786    -0.00019648    -0.00049012
