     6
  Step:     0            Position(A)                                  Velocity(au)
C        -0.03819724     0.01787978     0.01736712     0.00003170     0.00001320     0.00032471
N        -0.03917551    -0.04969978     1.29617612    -0.00022641     0.00009295    -0.00023186
H         0.91941939    -0.03308901    -0.52485945     0.00032566    -0.00035710    -0.00039723
H         0.78730618    -0.12665144     1.86631191     0.00082205    -0.00042404     0.00019488
H        -0.92856951    -0.08691112     1.83309498     0.00158168    -0.00048530    -0.00057685
H        -0.99153670     0.05446233    -0.50157307     0.00003904    -0.00018254     0.00013185
     6
  Step:     1            Position(A)                                  Velocity(au)
C        -0.03800629     0.01799375     0.01877555     0.00003846     0.00002870     0.00018966
N        -0.04044490    -0.04918761     1.29522438    -0.00023533     0.00009446    -0.00011586
H         0.92123256    -0.03517590    -0.52704152     0.00033521    -0.00040721    -0.00039694
H         0.79220699    -0.12913844     1.86752741     0.00095656    -0.00048522     0.00023923
H        -0.91993268    -0.08968406     1.82989820     0.00155669    -0.00053074    -0.00058236
H        -0.99152355     0.05333369    -0.50096742    -0.00003658    -0.00023151     0.00008995
     6
  Step:     2            Position(A)                                  Velocity(au)
C        -0.03777657     0.01819376     0.01944176     0.00004577     0.00004455     0.00005379
N        -0.04174967    -0.04866655     1.29490879    -0.00023925     0.00009616     0.00000027
H         0.92308604    -0.03754333    -0.52920139     0.00034026    -0.00045912    -0.00038970
H         0.79776949    -0.13195898     1.86892874     0.00106336    -0.00054535     0.00026314
H        -0.91154161    -0.09271659     1.82672482     0.00149103    -0.00057999    -0.00056716
H        -0.99193687     0.05192993    -0.50058912    -0.00011548    -0.00028265     0.00004894
     6
  Step:     3            Position(A)                                  Velocity(au)
C        -0.03750562     0.01848105     0.01936395     0.00005343     0.00006054    -0.00008195
N        -0.04306190    -0.04813581     1.29522729    -0.00023802     0.00009798     0.00011554
H         0.92495443    -0.04019798    -0.53130420     0.00034039    -0.00051183    -0.00037670
H         0.80383847    -0.13510364     1.87040572     0.00114151    -0.00060329     0.00026752
H        -0.90362325    -0.09602825     1.82369442     0.00138362    -0.00063275    -0.00052926
H        -0.99278673     0.05024199    -0.50043212    -0.00019469    -0.00033509     0.00000924
     6
  Step:     4            Position(A)                                  Velocity(au)
C        -0.03719210     0.01885592     0.01854535     0.00006123     0.00007649    -0.00021659
N        -0.04435323    -0.04759481     1.29617264    -0.00023161     0.00009990     0.00022899
H         0.92680929    -0.04314188    -0.53332183     0.00033504    -0.00056451    -0.00035910
H         0.81025564    -0.13855794     1.87185494     0.00119066    -0.00065818     0.00025381
H        -0.89640727    -0.09963776     1.82093562     0.00123434    -0.00068884    -0.00046737
H        -0.99406643     0.04826464    -0.50048807    -0.00027124    -0.00038818    -0.00002875
     6
  Step:     5            Position(A)                                  Velocity(au)
C        -0.03683578     0.01931781     0.01699470     0.00006896     0.00009225    -0.00034895
N        -0.04559554    -0.04704304     1.29773225    -0.00022011     0.00010188     0.00033952
H         0.92861948    -0.04637323    -0.53523245     0.00032383    -0.00061641    -0.00033799
H         0.81686319    -0.14230352     1.87318212     0.00121104    -0.00070925     0.00022380
H        -0.89012068    -0.10356347     1.81858181     0.00104441    -0.00074804    -0.00038121
H        -0.99575379     0.04599570    -0.50074659    -0.00034246    -0.00044129    -0.00006465
     6
  Step:     6            Position(A)                                  Velocity(au)
C        -0.03643754     0.01986527     0.01472723     0.00007640     0.00010761    -0.00047760
N        -0.04676160    -0.04648007     1.29988755    -0.00020374     0.00010390     0.00044586
H         0.93035252    -0.04988648    -0.53702006     0.00030666    -0.00066670    -0.00031436
H         0.82350663    -0.14631844     1.87430369     0.00120336    -0.00075573     0.00017955
H        -0.88497948    -0.10782263     1.81676455     0.00081686    -0.00080989    -0.00027186
H        -0.99781352     0.04343611    -0.50119542    -0.00040612    -0.00049373    -0.00009811
     6
  Step:     7            Position(A)                                  Velocity(au)
C        -0.03599940     0.02049582     0.01176620     0.00008332     0.00012234    -0.00060078
N        -0.04782597    -0.04590563     1.30261325    -0.00018293     0.00010590     0.00054659
H         0.93197666    -0.05367184    -0.53867393     0.00028387    -0.00071445    -0.00028913
H         0.83003696    -0.15057684     1.87514770     0.00116880    -0.00079676     0.00012333
H        -0.88117820    -0.11242973     1.81560562     0.00055688    -0.00087356    -0.00014204
H        -1.00019981     0.04059058    -0.50182066    -0.00046048    -0.00054465    -0.00012883
     6
  Step:     8            Position(A)                                  Velocity(au)
C        -0.03552461     0.02120574     0.00814447     0.00008948     0.00013618    -0.00071642
N        -0.04876591    -0.04531977     1.30587646    -0.00015827     0.00010779     0.00064009
H         0.93346283    -0.05771464    -0.54018808     0.00025611    -0.00075860    -0.00026312
H         0.83631307    -0.15504850     1.87565500     0.00110902    -0.00083141     0.00005767
H        -0.87887783    -0.11739414     1.81520822     0.00027210    -0.00093768     0.00000387
H        -1.00285895     0.03746845    -0.50260703    -0.00050420    -0.00059301    -0.00015656
     6
  Step:     9            Position(A)                                  Velocity(au)
C        -0.03501769     0.02198990     0.00390616     0.00009463     0.00014883    -0.00082217
N        -0.04956240    -0.04472301     1.30963587    -0.00013058     0.00010947     0.00072464
H         0.93478656    -0.06199462    -0.54156067     0.00022441    -0.00079798    -0.00023703
H         0.84220433    -0.15969848     1.87578045     0.00102631    -0.00085874    -0.00001463
H        -0.87819295    -0.12271727     1.81564803    -0.00002743    -0.00100039     0.00015983
H        -1.00573155     0.03408453    -0.50353828    -0.00053639    -0.00063765    -0.00018111
     6
  Step:    10            Position(A)                                  Velocity(au)
C        -0.03448452     0.02284156    -0.00089218     0.00009852     0.00015997    -0.00091555
N        -0.05020117    -0.04411653     1.31384115    -0.00010086     0.00011080     0.00079846
H         0.93592938    -0.06648540    -0.54279338     0.00019005    -0.00083137    -0.00021158
H         0.84759351    -0.16448710     1.87549421     0.00092362    -0.00087786    -0.00009053
H        -0.87917933    -0.12838968     1.81696500    -0.00032954    -0.00105932     0.00031850
H        -1.00875459     0.03045983    -0.50459771    -0.00055654    -0.00067734    -0.00020244
     6
  Step:    11            Position(A)                                  Velocity(au)
C        -0.03393228     0.02375234    -0.00618086     0.00010092     0.00016929    -0.00099412
N        -0.05067366    -0.04350230     1.31843285    -0.00007028     0.00011161     0.00085987
H         0.93688041    -0.07115424    -0.54389175     0.00015457    -0.00085762    -0.00018753
H         0.85238027    -0.16937031     1.87478307     0.00080463    -0.00088808    -0.00016677
H        -0.88182370    -0.13438834     1.81915713    -0.00062066    -0.00111175     0.00047170
H        -1.01186322     0.02662195    -0.50576866    -0.00056452    -0.00071082    -0.00022057
     6
  Step:    12            Position(A)                                  Velocity(au)
C        -0.03336938     0.02471221    -0.01187736     0.00010165     0.00017652    -0.00105579
N        -0.05097779    -0.04288317     1.32334285    -0.00004010     0.00011178     0.00090750
H         0.93763744    -0.07596232    -0.54486561     0.00011965    -0.00087580    -0.00016567
H         0.85648487    -0.17430060     1.87365135     0.00067383    -0.00088905    -0.00024004
H        -0.88603773    -0.14067478     1.82217735    -0.00088690    -0.00115489     0.00061120
H        -1.01499260     0.02260508    -0.50703507    -0.00056063    -0.00073703    -0.00023566
     6
  Step:    13            Position(A)                                  Velocity(au)
C        -0.03280511     0.02570976    -0.01788837     0.00010063     0.00018150    -0.00109923
N        -0.05111837    -0.04226280     1.32849598    -0.00001160     0.00011118     0.00094057
H         0.93820725    -0.08086586    -0.54572886     0.00008694    -0.00088539    -0.00014674
H         0.85985227    -0.17922890     1.87212129     0.00053637    -0.00088096    -0.00030716
H        -0.89165843    -0.14719481     1.82593461    -0.00111562    -0.00118631     0.00072968
H        -1.01808004     0.01844913    -0.50838186    -0.00054571    -0.00075524    -0.00024794
     6
  Step:    14            Position(A)                                  Velocity(au)
C        -0.03224919     0.02673272    -0.02411397     0.00009789     0.00018424    -0.00112431
N        -0.05110690    -0.04164546     1.33381330     0.00001410     0.00010980     0.00095924
H         0.93860527    -0.08581845    -0.54649913     0.00005792    -0.00088658    -0.00013137
H         0.86245576    -0.18410746     1.87023205     0.00039789    -0.00086476    -0.00036543
H        -0.89845687    -0.15388084     1.83030014    -0.00129715    -0.00120452     0.00082174
H        -1.02106744     0.01419773    -0.50979518    -0.00052109    -0.00076538    -0.00025775
     6
  Step:    15            Position(A)                                  Velocity(au)
C        -0.03171107     0.02776887    -0.03045417     0.00009360     0.00018492    -0.00113239
N        -0.05096081    -0.04103559     1.33921698     0.00003610     0.00010771     0.00096481
H         0.93885454    -0.09077478    -0.54719714     0.00003375    -0.00088048    -0.00012006
H         0.86429930    -0.18889387     1.86803708     0.00026393    -0.00084227    -0.00041296
H        -0.90615599    -0.16065715     1.83511877    -0.00142617    -0.00120944     0.00088469
H        -1.02390405     0.00989488    -0.51126260    -0.00048866    -0.00076819    -0.00026548
     6
  Step:    16            Position(A)                                  Velocity(au)
C        -0.03119919     0.02880712    -0.03681681     0.00014113     0.00029482    -0.00180485
N        -0.05070193    -0.04043716     1.34463627     0.00008636     0.00016843     0.00153781
H         0.93898383    -0.09569546    -0.54784589     0.00002433    -0.00139259    -0.00018126
H         0.86541651    -0.19355585     1.86559959     0.00022334    -0.00130776    -0.00071934
H        -0.91445522    -0.16744802     1.84022437    -0.00240755    -0.00192705     0.00147242
H        -1.02654908     0.00558040    -0.51277324    -0.00072205    -0.00122630    -0.00043518
     6
  Step:    17            Position(A)                                  Velocity(au)
C        -0.03042391     0.03042626    -0.04658480     0.00013091     0.00027461    -0.00162819
N        -0.05018049    -0.03951347     1.35299615     0.00009390     0.00015644     0.00140065
H         0.93927984    -0.10338593    -0.54917692     0.00008162    -0.00131319    -0.00028482
H         0.86637257    -0.20064728     1.86156978     0.00012259    -0.00118844    -0.00069052
H        -0.92801829    -0.17806601     1.84856248    -0.00232810    -0.00180332     0.00144004
H        -1.03072321    -0.00114950    -0.51552731    -0.00074115    -0.00114137    -0.00052719
     6
  Step:    18            Position(A)                                  Velocity(au)
C        -0.02970816     0.03193479    -0.05536090     0.00006700     0.00014256    -0.00081174
N        -0.04963242    -0.03865537     1.36058885     0.00005351     0.00008095     0.00070675
H         0.93991345    -0.11065184    -0.55108981     0.00007871    -0.00069233    -0.00021428
H         0.86681269    -0.20709151     1.85773493     0.00002327    -0.00060169    -0.00036291
H        -0.94097083    -0.18798677     1.85662557    -0.00122413    -0.00093681     0.00076795
H        -1.03499028    -0.00741909    -0.51877763    -0.00041985    -0.00059276    -0.00033935
     6
  Step:    19            Position(A)                                  Velocity(au)
C        -0.02935233     0.03273595    -0.05989765     0.00005889     0.00014091    -0.00079274
N        -0.04931567    -0.03820406     1.36454822     0.00005718     0.00007883     0.00069375
H         0.94033605    -0.11453780    -0.55229790     0.00007203    -0.00068319    -0.00021425
H         0.86669717    -0.21044888     1.85566376    -0.00005752    -0.00058791    -0.00036660
H        -0.94770949    -0.19321911     1.86085268    -0.00114890    -0.00091338     0.00072231
H        -1.03720085    -0.01076165    -0.52068657    -0.00036209    -0.00059004    -0.00033583
     6
  Step:    20            Position(A)                                  Velocity(au)
C        -0.02904260     0.03352722    -0.06431975     0.00005135     0.00014075    -0.00078068
N        -0.04898618    -0.03776452     1.36842904     0.00005885     0.00007772     0.00068723
H         0.94072746    -0.11837269    -0.55351108     0.00006832    -0.00068235    -0.00021856
H         0.86616263    -0.21373554     1.85359193    -0.00012627    -0.00058373    -0.00036753
H        -0.95395465    -0.19830897     1.86478849    -0.00106428    -0.00089727     0.00067408
H        -1.03908232    -0.01408718    -0.52257288    -0.00030752    -0.00059385    -0.00033551
     6
  Step:    21            Position(A)                                  Velocity(au)
C        -0.02877560     0.03431680    -0.06866599     0.00004413     0.00014158    -0.00077279
N        -0.04865466    -0.03733114     1.37226704     0.00005855     0.00007734     0.00068469
H         0.94110338    -0.12220175    -0.55475268     0.00006695    -0.00068721    -0.00022626
H         0.86527898    -0.21700513     1.85153572    -0.00018323    -0.00058718    -0.00036431
H        -0.95966323    -0.20329698     1.86842373    -0.00096840    -0.00088521     0.00062190
H        -1.04065482    -0.01743164    -0.52445489    -0.00025478    -0.00060220    -0.00033745
     6
  Step:    22            Position(A)                                  Velocity(au)
C        -0.02854925     0.03511014    -0.07295991     0.00003708     0.00014294    -0.00076662
N        -0.04833160    -0.03689985     1.37608418     0.00005627     0.00007745     0.00068385
H         0.94147595    -0.12605600    -0.55604079     0.00006735    -0.00069541    -0.00023647
H         0.86411403    -0.22030045     1.84951879    -0.00022805    -0.00059654    -0.00035563
H        -0.96478175    -0.20820607     1.87174162    -0.00086008    -0.00087439     0.00056488
H        -1.04193090    -0.02082001    -0.52634576    -0.00020309    -0.00061321    -0.00034082
     6
  Step:    23            Position(A)                                  Velocity(au)
C        -0.02836229     0.03591019    -0.07721149     0.00003015     0.00014450    -0.00076039
N        -0.04802738    -0.03646785     1.37988994     0.00005208     0.00007788     0.00068305
H         0.94185408    -0.12995348    -0.55738860     0.00006900    -0.00070514    -0.00024843
H         0.86273687    -0.22365478     1.84757152    -0.00026021    -0.00061057    -0.00034062
H        -0.96925061    -0.21304387     1.87472047    -0.00073965    -0.00086288     0.00050297
H        -1.04291864    -0.02426709    -0.52825400    -0.00015225    -0.00062550    -0.00034500
     6
  Step:    24            Position(A)                                  Velocity(au)
C        -0.02821374     0.03671804    -0.08142102     0.00002337     0.00014602    -0.00075302
N        -0.04775205    -0.03603330     1.38368468     0.00004610     0.00007853     0.00068120
H         0.94224377    -0.13390229    -0.55880513     0.00007144    -0.00071512    -0.00026153
H         0.86121854    -0.22709441     1.84572863    -0.00027939    -0.00062842    -0.00031889
H        -0.97301208    -0.21780762     1.87733835    -0.00060867    -0.00084959     0.00043686
H        -1.04362507    -0.02778016    -0.53018474    -0.00010253    -0.00063815    -0.00034966
     6
  Step:    25            Position(A)                                  Velocity(au)
C        -0.02810252     0.03753353    -0.08558280     0.00001678     0.00014736    -0.00074388
N        -0.04751485    -0.03559486     1.38746283     0.00003853     0.00007935     0.00067764
H         0.94264829    -0.13790350    -0.56029605     0.00007420    -0.00072448    -0.00027527
H         0.85963087    -0.23064090     1.84402646    -0.00028563    -0.00064951    -0.00029048
H        -0.97601723    -0.22248875     1.87957708    -0.00046958    -0.00083404     0.00036772
H        -1.04405851    -0.03136139    -0.53214117    -0.00005443    -0.00065057    -0.00035461
     6
  Step:    26            Position(A)                                  Velocity(au)
C        -0.02802722     0.03835565    -0.08968767     0.00001049     0.00014843    -0.00073269
N        -0.04732390    -0.03515154     1.39121519     0.00002960     0.00008030     0.00067201
H         0.94306837    -0.14195333    -0.56186420     0.00007684    -0.00073259    -0.00028922
H         0.85804438    -0.23431239     1.84250055    -0.00027941    -0.00067341    -0.00025582
H        -0.97823052    -0.22707619     1.88142482    -0.00032532    -0.00081617     0.00029699
H        -1.04422992    -0.03500983    -0.53412544    -0.00000855    -0.00066242    -0.00035977
     6
  Step:    27            Position(A)                                  Velocity(au)
C        -0.02798596     0.03918296    -0.09372495     0.00000457     0.00014917    -0.00071938
N        -0.04718587    -0.03470248     1.39493071     0.00001963     0.00008139     0.00066418
H         0.94350225    -0.14604457    -0.56351011     0.00007895    -0.00073904    -0.00030303
H         0.85652581    -0.23812438     1.84118359    -0.00026171    -0.00069975    -0.00021564
H        -0.97963242    -0.23155866     1.88287748    -0.00017906    -0.00079622     0.00022623
H        -1.04415347    -0.03872274    -0.53613925     0.00003448    -0.00067357    -0.00036516
     6
  Step:    28            Position(A)                                  Velocity(au)
C        -0.02797637     0.04001370    -0.09768358    -0.00000087     0.00014958    -0.00070405
N        -0.04710573    -0.03424690     1.39859759     0.00000893     0.00008260     0.00065417
H         0.94394590    -0.15016774    -0.56523233     0.00008013    -0.00074354    -0.00031638
H         0.85513547    -0.24209006     1.84010371    -0.00023393    -0.00072815    -0.00017093
H        -0.98022071    -0.23592621     1.88393933    -0.00003402    -0.00077461     0.00015700
H        -1.04384668    -0.04249655    -0.53818422     0.00007405    -0.00068398    -0.00037081
     6
  Step:    29            Position(A)                                  Velocity(au)
C        -0.02799560     0.04084605    -0.10155296    -0.00000575     0.00014964    -0.00068687
N        -0.04708661    -0.03378403     1.40220412    -0.00000216     0.00008395     0.00064208
H         0.94439320    -0.15431174    -0.56702783     0.00008005    -0.00074592    -0.00032905
H         0.85392488    -0.24622035     1.83928310    -0.00019786    -0.00075824    -0.00012287
H        -0.98001070    -0.24017128     1.88462312     0.00010663    -0.00075189     0.00009084
H        -1.04333016    -0.04632763    -0.54026208     0.00010964    -0.00069373    -0.00037675
     6
  Step:    30            Position(A)                                  Velocity(au)
C        -0.02804034     0.04167815    -0.10532348    -0.00001000     0.00014938    -0.00066808
N        -0.04712971    -0.03331312     1.40573929    -0.00001327     0.00008544     0.00062810
H         0.94483623    -0.15846445    -0.56889231     0.00007840    -0.00074605    -0.00034085
H         0.85293473    -0.25052388     1.83873707    -0.00015560    -0.00078965    -0.00007276
H        -0.97903473    -0.24428934     1.88494972     0.00023991    -0.00072866     0.00002916
H        -1.04262718    -0.05021277    -0.54237471     0.00014082    -0.00070297    -0.00038303
     6
  Step:    31            Position(A)                                  Velocity(au)
C        -0.02810692     0.04250825    -0.10898677    -0.00001357     0.00014882    -0.00064795
N        -0.04723423    -0.03283337     1.40919309    -0.00002405     0.00008707     0.00061246
H         0.94526554    -0.16261310    -0.57082057     0.00007495    -0.00074386    -0.00035167
H         0.85219352    -0.25500693     1.83847344    -0.00010942    -0.00082197    -0.00002199
H        -0.97734122    -0.24827921     1.88494760     0.00036307    -0.00070557    -0.00002674
H        -1.04176321    -0.05414963    -0.54452410     0.00016728    -0.00071190    -0.00038968
     6
  Step:    32            Position(A)                                  Velocity(au)
C        -0.02819134     0.04333473    -0.11253590    -0.00001639     0.00014799    -0.00062674
N        -0.04739746    -0.03234397     1.41255673    -0.00003419     0.00008885     0.00059541
H         0.94567053    -0.16674447    -0.57280685     0.00006953    -0.00073930    -0.00036145
H         0.85171671    -0.25967342     1.83849232    -0.00006169    -0.00085481     0.00002809
H        -0.97499328    -0.25214321     1.88465212     0.00047366    -0.00068325    -0.00007570
H        -1.04076520    -0.05813707    -0.54671231     0.00018879    -0.00072079    -0.00039670
     6
  Step:    33            Position(A)                                  Velocity(au)
C        -0.02828938     0.04415613    -0.11596535    -0.00001843     0.00014693    -0.00060472
N        -0.04761489    -0.03184410     1.41582278    -0.00004336     0.00009078     0.00057717
H         0.94603979    -0.17084505    -0.57484522     0.00006203    -0.00073233    -0.00037020
H         0.85150658    -0.26452502     1.83878624    -0.00001472    -0.00088781     0.00007615
H        -0.97206710    -0.25588698     1.88410473     0.00056954    -0.00066225    -0.00011672
H        -1.03966113    -0.06217546    -0.54894129     0.00020523    -0.00072995    -0.00040408
     6
  Step:    34            Position(A)                                  Velocity(au)
C        -0.02839661     0.04497118    -0.11927097    -0.00001967     0.00014567    -0.00058210
N        -0.04788036    -0.03133291     1.41898507    -0.00005130     0.00009287     0.00055799
H         0.94636144    -0.17490092    -0.57692999     0.00005240    -0.00072287    -0.00037802
H         0.85155278    -0.26956144     1.83934047     0.00002933    -0.00092066     0.00012095
H        -0.96865000    -0.25951912     1.88335214     0.00064892    -0.00064306    -0.00014896
H        -1.03847940    -0.06626697    -0.55121274     0.00021658    -0.00073975    -0.00041173
     6
  Step:    35            Position(A)                                  Velocity(au)
C        -0.02850845     0.04577883    -0.12244981    -0.00002006     0.00014424    -0.00055909
N        -0.04818638    -0.03080956     1.42203867    -0.00005781     0.00009512     0.00053807
H         0.94662348    -0.17889756    -0.57905619     0.00004063    -0.00071075    -0.00038509
H         0.85183332    -0.27478090     1.84013362     0.00006852    -0.00095321     0.00016137
H        -0.96483832    -0.26305052     1.88244538     0.00071044    -0.00062598    -0.00017172
H        -1.03724850    -0.07041606    -0.55352787     0.00022282    -0.00075067    -0.00041957
     6
  Step:    36            Position(A)                                  Velocity(au)
C        -0.02862013     0.04657818    -0.12549982    -0.00001958     0.00014269    -0.00053579
N        -0.04852445    -0.03027320     1.42497966    -0.00006274     0.00009753     0.00051752
H         0.94681411    -0.18281935    -0.58122024     0.00002679    -0.00069568    -0.00039176
H         0.85231617    -0.28018112     1.84113826     0.00010124    -0.00098549     0.00019636
H        -0.96073495    -0.26649319     1.88143900     0.00075319    -0.00061104    -0.00018444
H        -1.03599691    -0.07463015    -0.55588718     0.00022395    -0.00076335    -0.00042744
     6
  Step:    37            Position(A)                                  Velocity(au)
C        -0.02872656     0.04736855    -0.12841925    -0.00001812     0.00014103    -0.00051214
N        -0.04888545    -0.02972294     1.42780465    -0.00006605     0.00010010     0.00049640
H         0.94692199    -0.18664850    -0.58342100     0.00001100    -0.00067710    -0.00039866
H         0.85296123    -0.28576069     1.84232139     0.00012624    -0.00101792     0.00022496
H        -0.95644670    -0.26985845     1.88039042     0.00077671    -0.00059783    -0.00018661
H        -1.03475339    -0.07892088    -0.55829022     0.00021976    -0.00077879    -0.00043517
     6
  Step:    38            Position(A)                                  Velocity(au)
C        -0.02882199     0.04814946    -0.13120568    -0.00001549     0.00013933    -0.00048784
N        -0.04926031    -0.02915795     1.43051014    -0.00006781     0.00010283     0.00047453
H         0.94693663    -0.19036298    -0.58566181    -0.00000653    -0.00065381    -0.00040706
H         0.85372267    -0.29152187     1.84364454     0.00014280    -0.00105164     0.00024607
H        -0.95208154    -0.27315365     1.87935993     0.00078107    -0.00058499    -0.00017756
H        -1.03354857    -0.08330680    -0.56073542     0.00020950    -0.00079880    -0.00044257
     6
  Step:    39            Position(A)                                  Velocity(au)
C        -0.02889910     0.04892067    -0.13385381    -0.00001117     0.00013763    -0.00046162
N        -0.04964085    -0.02857740     1.43309091    -0.00006837     0.00010570     0.00045108
H         0.94684920    -0.19393197    -0.58795561    -0.00002512    -0.00062323    -0.00042018
H         0.85455202    -0.29747597     1.84506263     0.00015092    -0.00108944     0.00025814
H        -0.94774553    -0.27637527     1.87841244     0.00076689    -0.00056896    -0.00015575
H        -1.03241956    -0.08781948    -0.56322049     0.00019050    -0.00082727    -0.00044995
     6
  Step:    40            Position(A)                                  Velocity(au)
C        -0.02894639     0.04968244    -0.13634725    -0.00000401     0.00014502    -0.00045501
N        -0.05002184    -0.02798066     1.43553434    -0.00007314     0.00011561     0.00044916
H         0.94665684    -0.19730456    -0.59034183    -0.00004283    -0.00061832    -0.00047915
H         0.85540362    -0.30365619     1.84651969     0.00016276    -0.00121048     0.00027565
H        -0.94353985    -0.27949082     1.87762515     0.00078275    -0.00057517    -0.00012402
H        -1.03142678    -0.09252105    -0.56574700     0.00016139    -0.00093060    -0.00049238
     6
  Step:    41            Position(A)                                  Velocity(au)
C        -0.02899114     0.05048729    -0.13866605    -0.00001223     0.00014354    -0.00039939
N        -0.05039970    -0.02733626     1.43786868    -0.00006154     0.00011662     0.00040435
H         0.94657707    -0.20096582    -0.59314983    -0.00000910    -0.00068448    -0.00049991
H         0.85632002    -0.31014762     1.84821797     0.00015446    -0.00113227     0.00032442
H        -0.93934355    -0.28286622     1.87696688     0.00071932    -0.00064351    -0.00011404
H        -1.03067577    -0.09753836    -0.56878700     0.00013611    -0.00087076    -0.00057023
     6
  Step:    42            Position(A)                                  Velocity(au)
C        -0.02908251     0.05128061    -0.14079417    -0.00001849     0.00014133    -0.00037208
N        -0.05070701    -0.02668218     1.44003639    -0.00004931     0.00011877     0.00037930
H         0.94655555    -0.20492571    -0.59590794    -0.00001014    -0.00072145    -0.00048603
H         0.85712341    -0.31626310     1.85013183     0.00012809    -0.00108098     0.00035196
H        -0.93553077    -0.28665579     1.87635540     0.00064592    -0.00070888    -0.00009885
H        -1.02991132    -0.10221626    -0.57209601     0.00014175    -0.00082318    -0.00060428
     6
  Step:    43            Position(A)                                  Velocity(au)
C        -0.02919699     0.05206034    -0.14280751    -0.00002168     0.00013889    -0.00035316
N        -0.05094859    -0.02601432     1.44209051    -0.00003739     0.00012139     0.00036014
H         0.94646422    -0.20899604    -0.59855964    -0.00002646    -0.00073521    -0.00046668
H         0.85774576    -0.32217958     1.85213553     0.00009134    -0.00105049     0.00036252
H        -0.93215402    -0.29075652     1.87586660     0.00056309    -0.00076185    -0.00007261
H        -1.02909795    -0.10670086    -0.57551304     0.00014999    -0.00079432    -0.00061965
     6
  Step:    44            Position(A)                                  Velocity(au)
C        -0.02932374     0.05282597    -0.14472359    -0.00002340     0.00013639    -0.00033663
N        -0.05112307    -0.02533156     1.44404350    -0.00002509     0.00012415     0.00034273
H         0.94626113    -0.21310599    -0.60110043    -0.00004857    -0.00073966    -0.00044663
H         0.85813967    -0.32795138     1.85416545     0.00004677    -0.00102637     0.00036363
H        -0.92926558    -0.29513255     1.87554752     0.00047200    -0.00081077    -0.00003974
H        -1.02824246    -0.11105427    -0.57899058     0.00015724    -0.00077361    -0.00062873
     6