     6
  Step:     0            Position(A)                                  Velocity(au)
C        -0.02896881    -0.00053498     0.03462040     0.00011050     0.00002189     0.00030163
N        -0.05106734    -0.04773315     1.28663575     0.00013739    -0.00005099    -0.00034735
H         0.88947551     0.06351726    -0.58055134    -0.00117591    -0.00022624     0.00050457
H         0.87655319    -0.12199401     1.85797540    -0.00118839     0.00050002    -0.00052945
H        -0.93136053    -0.08399984     1.80443267    -0.00106973     0.00007937     0.00109760
H        -0.99276211     0.14239023    -0.48189711     0.00020817     0.00009458     0.00015990
     6
  Step:     1            Position(A)                                  Velocity(au)
C        -0.02837983    -0.00042876     0.03585877     0.00010395     0.00001697     0.00014995
N        -0.05026175    -0.04804060     1.28509818     0.00015506    -0.00006151    -0.00021286
H         0.88332347     0.06242731    -0.57768134    -0.00106357    -0.00017140     0.00053948
H         0.86962512    -0.11911446     1.85478903    -0.00133355     0.00055193    -0.00062961
H        -0.93743933    -0.08345410     1.81051376    -0.00113336     0.00012105     0.00111334
H        -0.99181581     0.14306167    -0.48105194     0.00013709     0.00015104     0.00014795
     6
  Step:     2            Position(A)                                  Velocity(au)
C        -0.02783165    -0.00034933     0.03626081     0.00009555     0.00001200    -0.00000358
N        -0.04937097    -0.04840610     1.28430708     0.00016838    -0.00007224    -0.00007511
H         0.87784029     0.06164215    -0.57464951    -0.00093227    -0.00011413     0.00056338
H         0.86196445    -0.11595605     1.85108763    -0.00145350     0.00060218    -0.00071547
H        -0.94375926    -0.08267563     1.81661236    -0.00115839     0.00016494     0.00110468
H        -0.99126242     0.14404255    -0.48027857     0.00006586     0.00020801     0.00013370
     6
  Step:     3            Position(A)                                  Velocity(au)
C        -0.02733434    -0.00029750     0.03581962     0.00008534     0.00000681    -0.00015766
N        -0.04841934    -0.04883111     1.28427636     0.00017714    -0.00008328     0.00006432
H         0.87312247     0.06117845    -0.57151679    -0.00078496    -0.00005337     0.00057597
H         0.85372070    -0.11252536     1.84696027    -0.00154372     0.00065150    -0.00078282
H        -0.95011455    -0.08164926     1.82260131    -0.00114707     0.00021196     0.00107420
H        -0.99109519     0.14533770    -0.47958897    -0.00000262     0.00026601     0.00011740
     6
  Step:     4            Position(A)                                  Velocity(au)
C        -0.02689764    -0.00027483     0.03453535     0.00007340     0.00000132    -0.00031097
N        -0.04743231    -0.04931751     1.28501105     0.00018111    -0.00009462     0.00020377
H         0.86924928     0.06105799    -0.56834577    -0.00062498     0.00001151     0.00057687
H         0.84506930    -0.10882569     1.84252010    -0.00159910     0.00070011    -0.00082701
H        -0.95631333    -0.08035582     1.82836896    -0.00110187     0.00026247     0.00102471
H        -0.99129114     0.14695392    -0.47899372    -0.00006532     0.00032505     0.00009923
     6
  Step:     5            Position(A)                                  Velocity(au)
C        -0.02653073    -0.00028303     0.03241509     0.00005986    -0.00000441    -0.00046202
N        -0.04643656    -0.04986705     1.28650726     0.00018004    -0.00010617     0.00034144
H         0.86628011     0.06130447    -0.56520108    -0.00045608     0.00008027     0.00056562
H         0.83621345    -0.10486040     1.83790603    -0.00161445     0.00074739    -0.00084331
H        -0.96217811    -0.07877571     1.83382009    -0.00102539     0.00031594     0.00095911
H        -0.99181030     0.14889642    -0.47850256    -0.00011921     0.00038426     0.00007930
     6
  Step:     6            Position(A)                                  Velocity(au)
C        -0.02624192    -0.00032308     0.02947401     0.00004490    -0.00001015    -0.00060889
N        -0.04545998    -0.05048057     1.28875140     0.00017373    -0.00011763     0.00047519
H         0.86425306     0.06193735    -0.56214961    -0.00028200     0.00015140     0.00054181
H         0.82738342    -0.10063822     1.83328189    -0.00158485     0.00079171    -0.00082748
H        -0.96754620    -0.07689481     1.83887573    -0.00092043     0.00037067     0.00088015
H        -0.99259703     0.15116343    -0.47812501    -0.00016193     0.00044180     0.00005766
     6
  Step:     7            Position(A)                                  Velocity(au)
C        -0.02603840    -0.00039436     0.02573845     0.00002876    -0.00001561    -0.00074887
N        -0.04453151    -0.05115687     1.29171783     0.00016204    -0.00012854     0.00060231
H         0.86318793     0.06296464    -0.55925998    -0.00010566     0.00022235     0.00050534
H         0.81883507    -0.09617908     1.82883243    -0.00150590     0.00083063    -0.00077640
H        -0.97227095    -0.07471116     1.84347120    -0.00079033     0.00042404     0.00079022
H        -0.99358595     0.15374089    -0.47787033    -0.00019256     0.00049513     0.00003447
     6
  Step:     8            Position(A)                                  Velocity(au)
C        -0.02592605    -0.00049445     0.02125060     0.00001174    -0.00002049    -0.00087848
N        -0.04368059    -0.05189205     1.29536541     0.00014499    -0.00013839     0.00071951
H         0.86309276     0.06437900    -0.55660036     0.00007092     0.00029037     0.00045671
H         0.81084691    -0.09151698     1.82475607    -0.00137449     0.00086171    -0.00068873
H        -0.97622492    -0.07223836     1.84755330    -0.00063923     0.00047327     0.00069142
H        -0.99471161     0.15660055    -0.47774653    -0.00021183     0.00054184     0.00001008
     6
  Step:     9            Position(A)                                  Velocity(au)
C        -0.02590918    -0.00061980     0.01607237    -0.00000580    -0.00002468    -0.00099385
N        -0.04293621    -0.05267955     1.29963466     0.00012285    -0.00014673     0.00082324
H         0.86396823     0.06615962    -0.55423473     0.00024591     0.00035332     0.00039720
H         0.80371135    -0.08669752     1.82125427    -0.00118998     0.00088327    -0.00056536
H        -0.97930449    -0.06950365     1.85107904    -0.00047226     0.00051624     0.00058592
H        -0.99591673     0.15970285    -0.47775938    -0.00022155     0.00058022    -0.00001502
     6
  Step:    10            Position(A)                                  Velocity(au)
C        -0.02599009    -0.00076667     0.01028655    -0.00002343    -0.00002817    -0.00109128
N        -0.04232534    -0.05351075     1.30444726     0.00009625    -0.00015325     0.00091021
H         0.86580556     0.06827675    -0.55221855     0.00041670     0.00040982     0.00032888
H         0.79771915    -0.08177283     1.81851913    -0.00095552     0.00089460    -0.00040980
H        -0.98143483    -0.06654331     1.85401712    -0.00029550     0.00055161     0.00047639
H        -0.99715576     0.16300143    -0.47791224    -0.00022392     0.00060936    -0.00004043
     6
  Step:    11            Position(A)                                  Velocity(au)
C        -0.02616851    -0.00093159     0.00399489    -0.00004060    -0.00003105    -0.00116784
N        -0.04187097    -0.05437567     1.30970825     0.00006620    -0.00015779     0.00097793
H         0.86858002     0.07069518    -0.55059496     0.00057962     0.00045905     0.00025447
H         0.79313630    -0.07679671     1.81671883    -0.00067888     0.00089586    -0.00022835
H        -0.98257487    -0.06339877     1.85635136    -0.00011579     0.00057878     0.00036611
H        -0.99839492     0.16644687    -0.47820687    -0.00022103     0.00062904    -0.00006591
     6
  Step:    12            Position(A)                                  Velocity(au)
C        -0.02644109    -0.00111159    -0.00268646    -0.00005672    -0.00003340    -0.00122192
N        -0.04158995    -0.05526360     1.31531065     0.00003405    -0.00016032     0.00102513
H         0.87224428     0.07337609    -0.54939173     0.00073026     0.00050058     0.00017714
H         0.79017777    -0.07182106     1.81598249    -0.00037235     0.00088795    -0.00002975
H        -0.98272109    -0.06011386     1.85808412     0.00005967     0.00059769     0.00025886
H        -0.99961107     0.16998922    -0.47864442    -0.00021481     0.00063957    -0.00009140
     6
  Step:    13            Position(A)                                  Velocity(au)
C        -0.02680119    -0.00130407    -0.00963397    -0.00007127    -0.00003530    -0.00125364
N        -0.04149113    -0.05616380     1.32114218     0.00000141    -0.00016098     0.00105215
H         0.87672504     0.07627845    -0.54861921     0.00086440     0.00053442     0.00010021
H         0.78898326    -0.06689285     1.81638706    -0.00005153     0.00087241     0.00017567
H        -0.98190936    -0.05673236     1.85923861     0.00022394     0.00060890     0.00015851
H        -1.00079079     0.17358043    -0.47922633    -0.00020702     0.00064187    -0.00011704
     6
  Step:    14            Position(A)                                  Velocity(au)
C        -0.02723922    -0.00150689    -0.01672574    -0.00008384    -0.00003686    -0.00126508
N        -0.04157420    -0.05706633     1.32709347    -0.00003012    -0.00016008     0.00106107
H         0.88192454     0.07936098    -0.54826947     0.00097895     0.00056115     0.00002691
H         0.78960068    -0.06205109     1.81794978     0.00026684     0.00085142     0.00037743
H        -0.98021323    -0.05329492     1.85985926     0.00037115     0.00061367     0.00006859
H        -1.00192949     0.17717736    -0.47995507    -0.00019929     0.00063749    -0.00014310
     6
  Step:    15            Position(A)                                  Velocity(au)
C        -0.02774345    -0.00171830    -0.02385228    -0.00009425    -0.00003818    -0.00126021
N        -0.04182965    -0.05796295     1.33306751    -0.00005909    -0.00015811     0.00105556
H         0.88772749     0.08258517    -0.54831680     0.00107270     0.00058197    -0.00004009
H         0.79198231    -0.05732374     1.82062897     0.00056756     0.00082759     0.00056656
H        -0.97773795    -0.04983534     1.86000947     0.00049716     0.00061392    -0.00000816
H        -1.00303063     0.18074517    -0.48083461    -0.00019303     0.00062857    -0.00017002
     6
  Step:    16            Position(A)                                  Velocity(au)
C        -0.02830130    -0.00193709    -0.03092638    -0.00010255    -0.00003938    -0.00124403
N        -0.04224011    -0.05884797     1.33898798    -0.00008447    -0.00015561     0.00104017
H         0.89401229     0.08591889    -0.54872120     0.00114648     0.00059862    -0.00009912
H         0.79599621    -0.05272538     1.82433407     0.00083906     0.00080359     0.00073680
H        -0.97461097    -0.04637695     1.85976730     0.00059974     0.00061199    -0.00006999
H        -1.00410465     0.18426042    -0.48187099    -0.00018937     0.00061751    -0.00019837
     6
  Step:    17            Position(A)                                  Velocity(au)
C        -0.02890054    -0.00216265    -0.03788846    -0.00016968    -0.00006322    -0.00190271
N        -0.04278270    -0.05971867     1.34480356    -0.00016450    -0.00023849     0.00158781
H         0.90066300     0.08933929    -0.54943510     0.00187298     0.00095479    -0.00023301
H         0.80144925    -0.04825698     1.82894219     0.00167313     0.00121748     0.00137820
H        -0.97097121    -0.04293035     1.85921977     0.00105642     0.00095046    -0.00018084
H        -1.00516722     0.18771246    -0.48307279    -0.00029447     0.00094473    -0.00035627
     6
  Step:    18            Position(A)                                  Velocity(au)
C        -0.02984693    -0.00253467    -0.04817181    -0.00010160    -0.00004240    -0.00107481
N        -0.04375765    -0.06101951     1.35341448    -0.00010954    -0.00013750     0.00090307
H         0.91143144     0.09466862    -0.55123706     0.00119058     0.00057618    -0.00024304
H         0.81142427    -0.04157256     1.83706447     0.00112992     0.00071216     0.00091379
H        -0.96492068    -0.03777350     1.85815311     0.00065983     0.00054220    -0.00011447
H        -1.00713497     0.19305175    -0.48545010    -0.00024750     0.00058541    -0.00029814
     6
  Step:    19            Position(A)                                  Velocity(au)
C        -0.03042919    -0.00277694    -0.05415943    -0.00010396    -0.00004344    -0.00104613
N        -0.04441029    -0.06178993     1.35843864    -0.00011940    -0.00013561     0.00087666
H         0.91820560     0.09795446    -0.55269162     0.00120179     0.00058745    -0.00026825
H         0.81824799    -0.03760454     1.84251152     0.00126687     0.00069467     0.00100412
H        -0.96111131    -0.03470584     1.85746254     0.00067821     0.00054570    -0.00012299
H        -1.00853426     0.19632323    -0.48722098    -0.00024888     0.00057428    -0.00032954
     6
  Step:    20            Position(A)                                  Velocity(au)
C        -0.03101994    -0.00302485    -0.05997597    -0.00010548    -0.00004474    -0.00102245
N        -0.04510487    -0.06254963     1.36330639    -0.00012536    -0.00013475     0.00085458
H         0.92499197     0.10129721    -0.55426388     0.00120472     0.00060107    -0.00028724
H         0.82571909    -0.03373422     1.84839457     0.00136969     0.00068258     0.00107665
H        -0.95726801    -0.03161605     1.85676531     0.00067730     0.00055448    -0.00011802
H        -1.00994327     0.19953165    -0.48916846    -0.00025270     0.00056744    -0.00036337
     6
  Step:    21            Position(A)                                  Velocity(au)
C        -0.03161463    -0.00327971    -0.06565033    -0.00010599    -0.00004615    -0.00100126
N        -0.04581917    -0.06330430     1.36804290    -0.00012716    -0.00013455     0.00083474
H         0.93174492     0.10470962    -0.55591982     0.00119688     0.00061563    -0.00029993
H         0.83364137    -0.02993329     1.85461161     0.00143555     0.00067341     0.00112942
H        -0.95349937    -0.02847420     1.85613616     0.00065557     0.00056743    -0.00009965
H        -1.01137428     0.20270051    -0.49130479    -0.00025791     0.00056323    -0.00039876
     6
  Step:    22            Position(A)                                  Velocity(au)
C        -0.03220787    -0.00354212    -0.07119751    -0.00010536    -0.00004758    -0.00098041
N        -0.04652996    -0.06405757     1.37266176    -0.00012461    -0.00013467     0.00081538
H         0.93840599     0.10819682    -0.55762530     0.00117621     0.00062980    -0.00030620
H         0.84180792    -0.02618697     1.86105255     0.00146246     0.00066503     0.00116089
H        -0.94992068    -0.02525660     1.85564845     0.00061209     0.00058347    -0.00006824
H        -1.01283377     0.20584398    -0.49363751    -0.00026348     0.00056012    -0.00043468
     6
  Step:    23            Position(A)                                  Velocity(au)
C        -0.03279361    -0.00381206    -0.07662057    -0.00010353    -0.00004891    -0.00095847
N        -0.04721355    -0.06481125     1.37716655    -0.00011778    -0.00013489     0.00079528
H         0.94490609     0.11175673    -0.55934599     0.00114162     0.00064258    -0.00030614
H         0.85000557    -0.02249199     1.86760135     0.00145026     0.00065587     0.00117059
H        -0.94665044    -0.02194543     1.85537259     0.00054710     0.00060182    -0.00002463
H        -1.01432247     0.20896795    -0.49616859    -0.00026851     0.00055700    -0.00047017
     6
  Step:    24            Position(A)                                  Velocity(au)
C        -0.03336554    -0.00408898    -0.08191461    -0.00010054    -0.00005008    -0.00093470
N        -0.04784691    -0.06556585     1.38155416    -0.00010692    -0.00013505     0.00077383
H         0.95117106     0.11538188    -0.56104843     0.00109314     0.00065338    -0.00030012
H         0.85802399    -0.01885339     1.87414148     0.00140068     0.00064496     0.00115924
H        -0.94380326    -0.01852737     1.85537308     0.00046227     0.00062193     0.00002975
H        -1.01583609     0.21207210    -0.49889478    -0.00027224     0.00055312    -0.00050445
     6
  Step:    25            Position(A)                                  Velocity(au)
C        -0.03391763    -0.00437195    -0.08707057    -0.00009648    -0.00005105    -0.00090888
N        -0.04840893    -0.06632107     1.38581806    -0.00009251    -0.00013506     0.00075086
H         0.95712756     0.11906155    -0.56270132     0.00103167     0.00066191    -0.00028869
H         0.86566537    -0.01528126     1.88056182     0.00131717     0.00063181     0.00112860
H        -0.94148215    -0.01499221     1.85570525     0.00036053     0.00064347     0.00009295
H        -1.01736616     0.21515195    -0.50180846    -0.00027408     0.00054804    -0.00053691
     6
  Step:    26            Position(A)                                  Velocity(au)
C        -0.03444447    -0.00465984    -0.09207809    -0.00009154    -0.00005180    -0.00088115
N        -0.04888138    -0.06707621     1.38995065    -0.00007516    -0.00013492     0.00072651
H         0.96270768     0.12278363    -0.56427668     0.00095872     0.00066818    -0.00027259
H         0.87275318    -0.01178822     1.88676207     0.00120433     0.00061627     0.00108116
H        -0.93977169    -0.01133182     1.85641253     0.00024579     0.00066623     0.00016261
H        -1.01890097     0.21820057    -0.50489871    -0.00027356     0.00054153    -0.00056711
     6
  Step:    27            Position(A)                                  Velocity(au)
C        -0.03494159    -0.00495140    -0.09692757    -0.00008588    -0.00005233    -0.00085190
N        -0.04924973    -0.06783040     1.39394510    -0.00005560    -0.00013464     0.00070111
H         0.96785224     0.12653612    -0.56575068     0.00087620     0.00067240    -0.00025266
H         0.87913760    -0.00838739     1.89265614     0.00106749     0.00059847     0.00101981
H        -0.93873265    -0.00753950     1.85752433     0.00012271     0.00069007     0.00023612
H        -1.02042635     0.22120981    -0.50815240    -0.00027037     0.00053354    -0.00059483
     6
  Step:    28            Position(A)                                  Velocity(au)
C        -0.03540557    -0.00524539    -0.10161131    -0.00007973    -0.00005264    -0.00082158
N        -0.04950353    -0.06858287     1.39779639    -0.00003456    -0.00013423     0.00067508
H         0.97251286     0.13030819    -0.56710408     0.00078620     0.00067492    -0.00022974
H         0.88469894    -0.00509100     1.89817434     0.00091220     0.00057871     0.00094767
H        -0.93839851    -0.00360959     1.85905482    -0.00000371     0.00071487     0.00031075
H        -1.02192650     0.22417119    -0.51155513    -0.00026427     0.00052410    -0.00061996
     6
  Step:    29            Position(A)                                  Velocity(au)
C        -0.03583411    -0.00554062    -0.10612407    -0.00007328    -0.00005276    -0.00079066
N        -0.04963660    -0.06933296     1.40150180    -0.00001280    -0.00013375     0.00064889
H         0.97665274     0.13409096    -0.56832236     0.00069078     0.00067613    -0.00020467
H         0.88934854    -0.00190952     1.90326408     0.00074396     0.00055735     0.00086777
H        -0.93877417     0.00046257     1.86100279    -0.00012844     0.00074049     0.00038386
H        -1.02338454     0.22707644    -0.51509210    -0.00025516     0.00051329    -0.00064254
     6
  Step:    30            Position(A)                                  Velocity(au)
C        -0.03622598    -0.00583603    -0.11046318    -0.00006671    -0.00005270    -0.00075959
N        -0.04964685    -0.07008023     1.40506100     0.00000899    -0.00013322     0.00062291
H         0.98024654     0.13787779    -0.56939551     0.00059191     0.00067646    -0.00017822
H         0.89302797     0.00114880     1.90788945     0.00056790     0.00053481     0.00078297
H        -0.93983649     0.00468058     1.86335234    -0.00024674     0.00076674     0.00045298
H        -1.02478316     0.22991777    -0.51874870    -0.00024299     0.00050122    -0.00066265
     6
  Step:    31            Position(A)                                  Velocity(au)
C        -0.03658098    -0.00613067    -0.11462824    -0.00006019    -0.00005250    -0.00072871
N        -0.04953599    -0.07082441     1.40847577     0.00003017    -0.00013267     0.00059749
H         0.98327963     0.14166446    -0.57031767     0.00049136     0.00067634    -0.00015107
H         0.89570666     0.00407804     1.91203000     0.00038867     0.00051147     0.00069584
H        -0.94153657     0.00904682     1.86607429    -0.00035434     0.00079339     0.00051595
H        -1.02610497     0.23268794    -0.52251092    -0.00022777     0.00048795    -0.00068041
     6
  Step:    32            Position(A)                                  Velocity(au)
C        -0.03689974    -0.00642372    -0.11862068    -0.00005385    -0.00005217    -0.00069827
N        -0.04930907    -0.07156537     1.41174964     0.00005022    -0.00013212     0.00057288
H         0.98574704     0.14544904    -0.57108665     0.00039069     0.00067613    -0.00012382
H         0.89737891     0.00687450     1.91567898     0.00021035     0.00048770     0.00060861
H        -0.94380314     0.01356225     1.86912811    -0.00044765     0.00082017     0.00057093
H        -1.02733293     0.23538018    -0.52636560    -0.00020958     0.00047356    -0.00069600
     6
  Step:    33            Position(A)                                  Velocity(au)
C        -0.03718366    -0.00671451    -0.12244331    -0.00004782    -0.00005173    -0.00066846
N        -0.04897393    -0.07230308     1.41488741     0.00006867    -0.00013158     0.00054922
H         0.98765230     0.14923175    -0.57170341     0.00029131     0.00067620    -0.00009697
H         0.89806093     0.00953643     1.91884163     0.00003658     0.00046380     0.00052327
H        -0.94654670     0.01822624     1.87246417    -0.00052384     0.00084679     0.00061651
H        -1.02845062     0.23798808    -0.53030055    -0.00018854     0.00045807    -0.00070956
     6
  Step:    34            Position(A)                                  Velocity(au)
C        -0.03743475    -0.00700249    -0.12609983    -0.00004220    -0.00005121    -0.00063937
N        -0.04854071    -0.07303754     1.41789464     0.00008517    -0.00013105     0.00052660
H         0.98900645     0.15301478    -0.57217161     0.00019445     0.00067687    -0.00007097
H         0.89778815     0.01206375     1.92153360    -0.00012946     0.00044001     0.00044151
H        -0.94966416     0.02303662     1.87602604    -0.00058087     0.00087295     0.00065167
H        -1.02944245     0.24050536    -0.53430457    -0.00016481     0.00044147    -0.00072126
     6
  Step:    35            Position(A)                                  Velocity(au)
C        -0.03765560    -0.00728723    -0.12959440    -0.00003707    -0.00005062    -0.00061103
N        -0.04802136    -0.07376881     1.42077719     0.00009942    -0.00013053     0.00050501
H         0.98982711     0.15680220    -0.57249719     0.00010120     0.00067845    -0.00004619
H         0.89661293     0.01445773     1.92377968    -0.00028493     0.00041654     0.00036486
H        -0.95304350     0.02798975     1.87975286    -0.00061754     0.00089840     0.00067580
H        -1.03029397     0.24292572    -0.53836755    -0.00013860     0.00042372    -0.00073129
     6
  Step:    36            Position(A)                                  Velocity(au)
C        -0.03784922    -0.00756843    -0.13293116    -0.00003252    -0.00004999    -0.00058337
N        -0.04742913    -0.07449690     1.42354072     0.00011124    -0.00013002     0.00048437
H         0.99013785     0.16059994    -0.57268803     0.00001258     0.00068129    -0.00002295
H         0.89460261     0.01672066     1.92561275    -0.00042728     0.00039350     0.00029469
H        -0.95656829     0.03308086     1.88358156    -0.00063338     0.00092299     0.00068865
H        -1.03099206     0.24524258    -0.54248052    -0.00011017     0.00040474    -0.00073987
     6
  Step:    37            Position(A)                                  Velocity(au)
C        -0.03801907    -0.00784593    -0.13611380    -0.00002863    -0.00004935    -0.00055629
N        -0.04677820    -0.07522183     1.42619020     0.00012049    -0.00012951     0.00046451
H         0.98996766     0.16441594    -0.57275366    -0.00007047     0.00068578    -0.00000151
H         0.89183790     0.01885532     1.92707296    -0.00055424     0.00037095     0.00023224
H        -0.96012175     0.03830455     1.88744882    -0.00062863     0.00094665     0.00069031
H        -1.03152519     0.24744890    -0.54663593    -0.00007982     0.00038441    -0.00074727
     6
  Step:    38            Position(A)                                  Velocity(au)
C        -0.03816902    -0.00811974    -0.13914531    -0.00002546    -0.00004873    -0.00052964
N        -0.04608322    -0.07594359     1.42872962     0.00012711    -0.00012899     0.00044525
H         0.98935069     0.16826063    -0.57270494    -0.00014699     0.00069245     0.00001789
H         0.88841134     0.02086441     1.92820707    -0.00066383     0.00034875     0.00017867
H        -0.96359054     0.04365561     1.89129282    -0.00060419     0.00096953     0.00068117
H        -1.03188373     0.24953674    -0.55082804    -0.00004792     0.00036251    -0.00075388
     6
  Step:    39            Position(A)                                  Velocity(au)
C        -0.03830338    -0.00839008    -0.14202768    -0.00002313    -0.00004818    -0.00050321
N        -0.04535890    -0.07666214     1.43116180     0.00013114    -0.00012846     0.00042635
H         0.98832634     0.17214781    -0.57255389    -0.00021598     0.00070209     0.00003507
H         0.88442564     0.02274939     1.92906794    -0.00075435     0.00032647     0.00013504
H        -0.96686810     0.04913020     1.89505465    -0.00056150     0.00099204     0.00066180
H        -1.03206030     0.25149669    -0.55505373    -0.00001493     0.00033867    -0.00076034
     6
  Step:    40            Position(A)                                  Velocity(au)
C        -0.03842712    -0.00865745    -0.14476174    -0.00002177    -0.00004776    -0.00047662
N        -0.04461957    -0.07737740     1.43348819     0.00013270    -0.00012790     0.00040745
H         0.98694011     0.17609676    -0.57231354    -0.00027604     0.00071613     0.00004978
H         0.87999189     0.02450823     1.92971425    -0.00082450     0.00030303     0.00010244
H        -0.96985750     0.05472790     1.89867931    -0.00050248     0.00101516     0.00063294
H        -1.03205039     0.25331662    -0.55931430     0.00001850     0.00031214    -0.00076782
     6
  Step:    41            Position(A)                                  Velocity(au)
C        -0.03854630    -0.00892293    -0.14734500    -0.00002176    -0.00004770    -0.00044856
N        -0.04387848    -0.07808903     1.43570743     0.00013211    -0.00012718     0.00038754
H         0.98524671     0.18013722    -0.57199850    -0.00032437     0.00073786     0.00006137
H         0.87522723     0.02613009     1.93021081    -0.00087345     0.00027541     0.00008228
H        -0.97247397     0.06045569     1.90211598    -0.00042967     0.00104111     0.00059527
H        -1.03185394     0.25497900    -0.56361979     0.00005098     0.00028135    -0.00077926
     6
  Step:    42            Position(A)                                  Velocity(au)
C        -0.03866974    -0.00918933    -0.14976383    -0.00002405    -0.00004899    -0.00041225
N        -0.04314640    -0.07879567     1.43780983     0.00013018    -0.00012563     0.00036175
H         0.98332287     0.18432497    -0.57162923    -0.00035000     0.00077725     0.00006411
H         0.87025167     0.02757942     1.93063183    -0.00090077     0.00023406     0.00007791
H        -0.97464899     0.06633780     1.90531738    -0.00034738     0.00107407     0.00054966
H        -1.03148186     0.25645408    -0.56800421     0.00007573     0.00024425    -0.00080641
     6
  Step:    43            Position(A)                                  Velocity(au)
C        -0.03881432    -0.00946903    -0.15194004    -0.00002853    -0.00005807    -0.00036770
N        -0.04242750    -0.07948935     1.43973967     0.00013336    -0.00012816     0.00033422
H         0.98134549     0.18880074    -0.57128393    -0.00035060     0.00087583     0.00002595
H         0.86518692     0.02873898     1.93107924    -0.00095556     0.00020145     0.00009580
H        -0.97634602     0.07242766     1.90824268    -0.00027664     0.00114916     0.00053559
H        -1.03100978     0.25770147    -0.57260830     0.00006952     0.00024646    -0.00092021
     6
  Step:    44            Position(A)                                  Velocity(au)
C        -0.03895188    -0.00979008    -0.15393029    -0.00002323    -0.00005687    -0.00034968
N        -0.04172194    -0.08020202     1.44155846     0.00012039    -0.00012816     0.00032066
H         0.97923214     0.19353678    -0.57118821    -0.00040326     0.00084166     0.00001773
H         0.85991469     0.03001965     1.93158687    -0.00092917     0.00024247     0.00009518
H        -0.97758374     0.07866914     1.91111770    -0.00016504     0.00111150     0.00049011
H        -1.03055204     0.25917255    -0.57764527     0.00010132     0.00026291    -0.00089217
     6