 Fermi distribution function

Calculation with static geometry


********************************************************************************
 iSCC Total electronic   Diff electronic      SCC error    
   11   -0.53834312E+01   -0.76338935E-11    0.33462693E-07
********************************************************************************

 Total charge:     1.00000000

 Atomic gross charges (e)
 Atom           Charge
    1       0.30520461
    2      -0.20343943
    3       0.14302407
    4       0.30026372
    5       0.29021239
    6       0.16473464

Nr. of electrons (up):     12.00000000
Atom populations (up)
 Atom       Population
    1       3.69479539
    2       5.20343943
    3       0.85697593
    4       0.69973628
    5       0.70978761
    6       0.83526536

l-shell populations (up)
 Atom Sh.   l       Population
    1   1   0       1.30624347
    1   2   1       2.38855193
    2   1   0       1.40937401
    2   2   1       3.79406542
    3   1   0       0.85697593
    4   1   0       0.69973628
    5   1   0       0.70978761
    6   1   0       0.83526536

Orbital populations (up)
 Atom Sh.   l   m       Population  Label
    1   1   0   0       1.30624347  s
    1   2   1  -1       0.52570268  p_y
    1   2   1   0       0.89065983  p_z
    1   2   1   1       0.97218942  p_x
    2   1   0   0       1.40937401  s
    2   2   1  -1       1.32211756  p_y
    2   2   1   0       1.07741573  p_z
    2   2   1   1       1.39453213  p_x
    3   1   0   0       0.85697593  s
    4   1   0   0       0.69973628  s
    5   1   0   0       0.70978761  s
    6   1   0   0       0.83526536  s

Fermi level:                        -0.4844944612 H          -13.1838 eV
Band energy:                        -8.8274019331 H         -240.2058 eV
TS:                                  0.0000000000 H            0.0000 eV
Band free energy (E-TS):            -8.8274019331 H         -240.2058 eV
Extrapolated E(0K):                 -8.8274019331 H         -240.2058 eV
Input / Output electrons (q):     12.0000000000     12.0000000000

Energy H0:                          -5.5154087998 H         -150.0819 eV
Energy SCC:                          0.1319776401 H            3.5913 eV
Total Electronic energy:            -5.3834311598 H         -146.4906 eV
Repulsive energy:                    0.1910806804 H            5.1996 eV
Total energy:                       -5.1923504794 H         -141.2910 eV
Extrapolated to 0:                  -5.1923504794 H         -141.2910 eV
Total Mermin free energy:           -5.1923504794 H         -141.2910 eV
Force related energy:               -5.1923504794 H         -141.2910 eV

SCC converged

Excitation Energy:                   0.0859746604 H            2.3395 eV

Total Forces
    1     -0.005047534615     -0.010443006945      0.027926744337
    2      0.008938967371      0.000700250903     -0.032538710690
    3     -0.006323366461      0.015872931235      0.006361328593
    4     -0.014834245775     -0.008359840455     -0.002657647834
    5      0.009539885600      0.012680703052      0.000149758117
    6      0.007726293879     -0.010451037789      0.000758527477

Maximal derivative component:        0.325387E-01 au


