|===============================================================================
|
|  DFTB+ release 20.1
|
|  Copyright (C) 2006 - 2020  DFTB+ developers group
|
|===============================================================================
|
|  When publishing results obtained with DFTB+, please cite the following
|  reference:
|
|  * DFTB+, a software package for efficient approximate density functional
|    theory based atomistic simulations, J. Chem. Phys. 152, 124101 (2020).
|    [doi: 10.1063/1.5143190]
|
|  You should also cite additional publications crediting the parametrization
|  data you use. Please consult the documentation of the SK-files for the
|  references.
|
|===============================================================================

Reading input file 'dftb_in.hsd'
Parser version: 8

--------------------------------------------------------------------------------
Reading SK-files:
Done.


Processed input in HSD format written to 'dftb_pin.hsd'

Starting initialization...
--------------------------------------------------------------------------------
OpenMP threads:              1
Chosen random seed:          508637378
Mode:                        Static calculation
Self consistent charges:     Yes
SCC-tolerance:                 0.100000E-05
Max. scc iterations:                   1000
Shell resolved Hubbard:      No
Spin polarisation:           No
Nr. of up electrons:             6.000000
Nr. of down electrons:           6.000000
Periodic boundaries:         No
Electronic solver:           Relatively robust
Maximal SCC-cycles:                    1000
Initial charges:             Set automatically (system chrg:   0.100E+01)
Included shells:             C:  s, p
                             N:  s, p
                             H:  s
Spin coupling constants:     C   1(s)-1(s):  -0.455900E-01
                             C   1(s)-2(p):  -0.293000E-01
                             C   2(p)-1(s):  -0.293000E-01
                             C   2(p)-2(p):  -0.275500E-01
                             N   1(s)-1(s):  -0.468700E-01
                             N   1(s)-2(p):  -0.317000E-01
                             N   2(p)-1(s):  -0.317000E-01
                             N   2(p)-2(p):  -0.307200E-01
                             H   1(s)-1(s):  -0.792500E-01
Range separated hybrid:      Yes
  Screening parameter omega:   0.300000E+00
  Range separated algorithm:   MatrixBased
Extra options:
                             Mulliken analysis
                             Force calculation
Force type                   original
                             Eigenvector printing


REKS Calcuation:             Yes
SSR(2,2) Calcuation:         Yes
Energy Functional:           (PPS+OSS)/2
Number of Core Orbitals:                  5
Number of Active Orbitals:                2
Number of Basis:                         12
Number of States:                         2
State-Averaging Weight:          0.500000
                                 0.500000
State of Interest:                        1
Initial Guess:               Diagonalize H0 matrix
Newton-Raphson for FON opt:  Yes
NR max. Iterations:                      50
Level Shifting:              Yes
Shift Value:                     0.300000
W Scale Factor:              C  =    3.000000
                             N  =    3.000000
                             H  =    3.000000
Transition Dipole:           No
Gradient of Microstate:      No
CP-REKS Solver:              Preconditioned Conjugate-Gradient
CG max. Iterations:                     100
CG Tolerance:                  0.100000E-07
Memory for A and Hxc:        Direct Updating Without Saving
Non-Adiabatic Coupling:      Yes

--------------------------------------------------------------------------------

***  Geometry step: 0

  iSCC       reks energy        Diff energy         x_a       SCC error   
    1       -6.2550303527       0.0000000000     0.999107    1.18530299
    2       -6.2702038586      -0.0151735059     0.999657    0.11587459
    3       -6.2757384341      -0.0055345755     0.999818    0.05798508
    4       -6.2793112258      -0.0035727917     0.999889    0.03077823
    5       -6.2820197824      -0.0027085566     0.999925    0.01662542
    6       -6.2841175014      -0.0020977190     0.999945    0.01435451
    7       -6.2856859457      -0.0015684443     0.999956    0.01228351
    8       -6.2867973968      -0.0011114511     0.999963    0.01085370
    9       -6.2875441842      -0.0007467874     0.999966    0.00917519
   10       -6.2880240671      -0.0004798828     0.999969    0.00753567
   11       -6.2883222164      -0.0002981494     0.999970    0.00607986
   12       -6.2885031505      -0.0001809340     0.999971    0.00485654
   13       -6.2886113051      -0.0001081546     0.999971    0.00386079
   14       -6.2886754017      -0.0000640966     0.999971    0.00306421
   15       -6.2887132465      -0.0000378448     0.999971    0.00243228
   16       -6.2887355881      -0.0000223416     0.999971    0.00193253
   17       -6.2887488095      -0.0000132214     0.999971    0.00153737
   18       -6.2887566669      -0.0000078573     0.999971    0.00122453
   19       -6.2887613615      -0.0000046947     0.999971    0.00098145
   20       -6.2887641835      -0.0000028220     0.999971    0.00079527
   21       -6.2887658906      -0.0000017071     0.999971    0.00064315
   22       -6.2887669297      -0.0000010391     0.999970    0.00051935
   23       -6.2887675661      -0.0000006364     0.999970    0.00041889
   24       -6.2887679581      -0.0000003919     0.999970    0.00033752
   25       -6.2887682007      -0.0000002426     0.999970    0.00027173
   26       -6.2887683516      -0.0000001509     0.999970    0.00021860
   27       -6.2887684458      -0.0000000942     0.999970    0.00017575
   28       -6.2887685048      -0.0000000590     0.999970    0.00014121
   29       -6.2887685419      -0.0000000371     0.999970    0.00011340
   30       -6.2887685653      -0.0000000234     0.999970    0.00009102
   31       -6.2887685801      -0.0000000148     0.999970    0.00007303
   32       -6.2887685894      -0.0000000093     0.999970    0.00005857
   33       -6.2887685954      -0.0000000059     0.999970    0.00004696
   34       -6.2887685991      -0.0000000038     0.999970    0.00003763
   35       -6.2887686015      -0.0000000024     0.999970    0.00003015
   36       -6.2887686030      -0.0000000015     0.999970    0.00002415
   37       -6.2887686040      -0.0000000010     0.999970    0.00001934
   38       -6.2887686046      -0.0000000006     0.999970    0.00001549
   39       -6.2887686050      -0.0000000004     0.999970    0.00001240
   40       -6.2887686052      -0.0000000002     0.999970    0.00000992
   41       -6.2887686054      -0.0000000002     0.999970    0.00000794
   42       -6.2887686055      -0.0000000001     0.999970    0.00000635
   43       -6.2887686056      -0.0000000001     0.999970    0.00000508
   44       -6.2887686056      -0.0000000000     0.999970    0.00000406
   45       -6.2887686056      -0.0000000000     0.999970    0.00000325
   46       -6.2887686057      -0.0000000000     0.999970    0.00000260
   47       -6.2887686057      -0.0000000000     0.999970    0.00000208
   48       -6.2887686057      -0.0000000000     0.999970    0.00000166
   49       -6.2887686057      -0.0000000000     0.999970    0.00000133
   50       -6.2887686057      -0.0000000000     0.999970    0.00000106
   51       -6.2887686057      -0.0000000000     0.999970    0.00000085
  
--------------------------------------------------
 Final SA-REKS(2,2) energy:      -6.28876861
  
 State     Energy      FON(1)    FON(2)   Spin
  PPS   -6.41847047   1.999940  0.000060  0.00
  OSS   -6.15906674   1.000000  1.000000  0.00
 Trip   -6.23769840   1.000000  1.000000  1.00
--------------------------------------------------

 Lagrangian Wab:   0.00120437  0.00120432

--------------------------------------------------
 SSR: 2SI-2SA-REKS(2,2) Hamiltonian matrix
               PPS           OSS
   PPS    -6.41847047    0.00169391
   OSS     0.00169391   -6.15906674
--------------------------------------------------

----------------------------------------------------------------
 SSR: 2SI-2SA-REKS(2,2) states
                    E_n       C_{PPS}    C_{OSS}
 SSR state  1   -6.41848153  -0.999979   0.006530
 SSR state  2   -6.15905568  -0.006530  -0.999979
----------------------------------------------------------------

 unrelaxed SSR FONs for S0:  1.999898  0.000102

Total Energy:                       -6.4184815323 H         -174.6558 eV
Extrapolated to 0:                  -6.4184815323 H         -174.6558 eV

----------------------------------------------------------------------------------
 Solving CP-REKS equation for  1 state vector...
----------------------------------------------------------------------------------
  CG solver: Constructing Y initial guess
  CG solver: Iteration    1    eps =    0.000032287008
  CG solver: Iteration    2    eps =    0.000002267800
  CG solver: Iteration    3    eps =    0.000000277839
  CG solver: Iteration    4    eps =    0.000000004297
  Convergence reached in CG solver after    4 iterations
  CG solver: Calculating converged R, Z, Q2 matrix
----------------------------------------------------------------------------------

----------------------------------------------------------------------------------
 Solving CP-REKS equation for SI between  1 and  2 state vectors...
----------------------------------------------------------------------------------
  CG solver: Constructing Y initial guess
  CG solver: Iteration    1    eps =    0.000405921166
  CG solver: Iteration    2    eps =    0.000233527953
  CG solver: Iteration    3    eps =    0.000080232465
  CG solver: Iteration    4    eps =    0.000001165294
  CG solver: Iteration    5    eps =    0.000000107198
  CG solver: Iteration    6    eps =    0.000000005971
  Convergence reached in CG solver after    6 iterations
  CG solver: Calculating converged R, Z, Q2 matrix
----------------------------------------------------------------------------------

--------------------------------------------------
 Gradient Information
--------------------------------------------------
           1 st state (SSR)
     0.00005357     0.00013387    -0.01740613
     0.00451698    -0.00587719     0.01578522
    -0.00180002     0.00397380    -0.00160742
    -0.00284718    -0.00138980     0.00274308
    -0.00055436     0.00520756     0.00286005
     0.00063101    -0.00204823    -0.00237479

           2 st state (SSR)
    -0.00109144    -0.00504862     0.07846259
     0.00498071     0.00832513    -0.09959950
    -0.01623833    -0.00328074     0.01719341
    -0.00916490     0.00234931    -0.00697981
     0.00674853    -0.00369418    -0.00635636
     0.01476543     0.00134910     0.01727967
--------------------------------------------------
 Coupling Information
--------------------------------------------------
 between  1 and  2 states
--------------------------------------------------
 g vector - difference gradient
     0.00056648     0.00259203    -0.04795454
    -0.00024540    -0.00710221     0.05770039
     0.00722753     0.00370196    -0.00939616
     0.00315758    -0.00195053     0.00486532
    -0.00363687     0.00453277     0.00461459
    -0.00706933    -0.00177402    -0.00982959

 h vector - derivative coupling
    -0.00046472     0.00004291    -0.00123228
    -0.00103459    -0.00003341     0.00023809
     0.00059421     0.00569508     0.00038676
    -0.00011835    -0.00618775     0.00026476
     0.00113966     0.00624145     0.00045917
    -0.00011621    -0.00575827    -0.00011650

 G vector - GDV
     0.00057250     0.00259124    -0.04793436
    -0.00023186    -0.00710116     0.05769236
     0.00721915     0.00362727    -0.00940041
     0.00315886    -0.00186955     0.00486144
    -0.00365144     0.00445087     0.00460820
    -0.00706721    -0.00169867    -0.00982723

 H vector - DCV - non-adiabatic coupling
    -0.00176267     0.00029586    -0.00716352
    -0.00400001    -0.00048630     0.00382218
     0.00265410     0.02213711     0.00101773
    -0.00029721    -0.02394786     0.00126537
     0.00420957     0.02428481     0.00200208
    -0.00080378    -0.02228363    -0.00094384
--------------------------------------------------


--------------------------------------------------------------------------------
DFTB+ running times                          cpu [s]             wall clock [s]
--------------------------------------------------------------------------------
SCC                                    +     0.02  ( 69.6%)      0.03  ( 65.0%)
--------------------------------------------------------------------------------
Missing                                +     0.01  ( 30.4%)      0.01  ( 35.0%)
Total                                  =     0.03  (100.0%)      0.04  (100.0%)
--------------------------------------------------------------------------------
