|===============================================================================
|
|  DFTB+ release 20.1
|
|  Copyright (C) 2006 - 2020  DFTB+ developers group
|
|===============================================================================
|
|  When publishing results obtained with DFTB+, please cite the following
|  reference:
|
|  * DFTB+, a software package for efficient approximate density functional
|    theory based atomistic simulations, J. Chem. Phys. 152, 124101 (2020).
|    [doi: 10.1063/1.5143190]
|
|  You should also cite additional publications crediting the parametrization
|  data you use. Please consult the documentation of the SK-files for the
|  references.
|
|===============================================================================

Reading input file 'dftb_in.hsd'
Parser version: 8

--------------------------------------------------------------------------------
Reading SK-files:
Done.


Processed input in HSD format written to 'dftb_pin.hsd'

Starting initialization...
--------------------------------------------------------------------------------
OpenMP threads:              1
Chosen random seed:          511549782
Mode:                        Static calculation
Self consistent charges:     Yes
SCC-tolerance:                 0.100000E-05
Max. scc iterations:                   1000
Shell resolved Hubbard:      No
Spin polarisation:           No
Nr. of up electrons:             6.000000
Nr. of down electrons:           6.000000
Periodic boundaries:         No
Electronic solver:           Relatively robust
Maximal SCC-cycles:                    1000
Initial charges:             Set automatically (system chrg:   0.100E+01)
Included shells:             C:  s, p
                             N:  s, p
                             H:  s
Spin coupling constants:     C   1(s)-1(s):  -0.455900E-01
                             C   1(s)-2(p):  -0.293000E-01
                             C   2(p)-1(s):  -0.293000E-01
                             C   2(p)-2(p):  -0.275500E-01
                             N   1(s)-1(s):  -0.468700E-01
                             N   1(s)-2(p):  -0.317000E-01
                             N   2(p)-1(s):  -0.317000E-01
                             N   2(p)-2(p):  -0.307200E-01
                             H   1(s)-1(s):  -0.792500E-01
Range separated hybrid:      Yes
  Screening parameter omega:   0.300000E+00
  Range separated algorithm:   MatrixBased
Extra options:
                             Mulliken analysis
                             Force calculation
Force type                   original
                             Eigenvector printing


REKS Calcuation:             Yes
SSR(2,2) Calcuation:         Yes
Energy Functional:           (PPS+OSS)/2
Number of Core Orbitals:                  5
Number of Active Orbitals:                2
Number of Basis:                         12
Number of States:                         2
State-Averaging Weight:          0.500000
                                 0.500000
State of Interest:                        1
Initial Guess:               Diagonalize H0 matrix
Newton-Raphson for FON opt:  Yes
NR max. Iterations:                      50
Level Shifting:              Yes
Shift Value:                     0.300000
W Scale Factor:              C  =    3.000000
                             N  =    3.000000
                             H  =    3.000000
Transition Dipole:           No
Gradient of Microstate:      No
CP-REKS Solver:              Preconditioned Conjugate-Gradient
CG max. Iterations:                     100
CG Tolerance:                  0.100000E-07
Memory for A and Hxc:        Direct Updating Without Saving
Non-Adiabatic Coupling:      Yes

--------------------------------------------------------------------------------

***  Geometry step: 0

  iSCC       reks energy        Diff energy         x_a       SCC error   
    1       -6.2634123281       0.0000000000     0.998919    1.19006705
    2       -6.2766123926      -0.0132000644     0.999577    0.10633652
    3       -6.2802220857      -0.0036096932     0.999769    0.04825768
    4       -6.2817276163      -0.0015055306     0.999846    0.02423285
    5       -6.2824797719      -0.0007521556     0.999882    0.01288076
    6       -6.2829184670      -0.0004386951     0.999900    0.00689804
    7       -6.2832043469      -0.0002858799     0.999911    0.00477407
    8       -6.2834028251      -0.0001984782     0.999918    0.00425362
    9       -6.2835450711      -0.0001422460     0.999922    0.00373006
   10       -6.2836485205      -0.0001034494     0.999925    0.00323976
   11       -6.2837242031      -0.0000756826     0.999927    0.00279616
   12       -6.2837796593      -0.0000554563     0.999928    0.00241727
   13       -6.2838202713      -0.0000406119     0.999929    0.00212476
   14       -6.2838499648      -0.0000296935     0.999930    0.00189656
   15       -6.2838716315      -0.0000216667     0.999930    0.00167832
   16       -6.2838874078      -0.0000157762     0.999931    0.00147479
   17       -6.2838988712      -0.0000114635     0.999931    0.00128848
   18       -6.2839071850      -0.0000083137     0.999931    0.00112031
   19       -6.2839132038      -0.0000060188     0.999931    0.00097017
   20       -6.2839175543      -0.0000043506     0.999931    0.00083731
   21       -6.2839206946      -0.0000031403     0.999932    0.00072057
   22       -6.2839229585      -0.0000022639     0.999932    0.00061859
   23       -6.2839245889      -0.0000016303     0.999932    0.00052993
   24       -6.2839257618      -0.0000011730     0.999932    0.00045317
   25       -6.2839266050      -0.0000008432     0.999932    0.00038693
   26       -6.2839272107      -0.0000006057     0.999932    0.00032994
   27       -6.2839276455      -0.0000004348     0.999932    0.00028102
   28       -6.2839279575      -0.0000003120     0.999932    0.00023912
   29       -6.2839281812      -0.0000002237     0.999932    0.00020329
   30       -6.2839283416      -0.0000001604     0.999932    0.00017271
   31       -6.2839284565      -0.0000001149     0.999932    0.00014663
   32       -6.2839285389      -0.0000000823     0.999932    0.00012442
   33       -6.2839285978      -0.0000000590     0.999932    0.00010553
   34       -6.2839286401      -0.0000000422     0.999932    0.00008947
   35       -6.2839286703      -0.0000000302     0.999932    0.00007583
   36       -6.2839286919      -0.0000000216     0.999932    0.00006424
   37       -6.2839287074      -0.0000000155     0.999932    0.00005442
   38       -6.2839287185      -0.0000000111     0.999932    0.00004608
   39       -6.2839287264      -0.0000000079     0.999932    0.00003902
   40       -6.2839287321      -0.0000000057     0.999932    0.00003303
   41       -6.2839287362      -0.0000000041     0.999932    0.00002795
   42       -6.2839287391      -0.0000000029     0.999932    0.00002366
   43       -6.2839287411      -0.0000000021     0.999932    0.00002002
   44       -6.2839287426      -0.0000000015     0.999932    0.00001694
   45       -6.2839287437      -0.0000000011     0.999932    0.00001433
   46       -6.2839287445      -0.0000000008     0.999932    0.00001212
   47       -6.2839287450      -0.0000000005     0.999932    0.00001026
   48       -6.2839287454      -0.0000000004     0.999932    0.00000868
   49       -6.2839287457      -0.0000000003     0.999932    0.00000734
   50       -6.2839287459      -0.0000000002     0.999932    0.00000621
   51       -6.2839287460      -0.0000000001     0.999932    0.00000525
   52       -6.2839287461      -0.0000000001     0.999932    0.00000444
   53       -6.2839287462      -0.0000000001     0.999932    0.00000376
   54       -6.2839287462      -0.0000000001     0.999932    0.00000318
   55       -6.2839287463      -0.0000000000     0.999932    0.00000269
   56       -6.2839287463      -0.0000000000     0.999932    0.00000227
   57       -6.2839287463      -0.0000000000     0.999932    0.00000192
   58       -6.2839287463      -0.0000000000     0.999932    0.00000162
   59       -6.2839287463      -0.0000000000     0.999932    0.00000137
   60       -6.2839287463      -0.0000000000     0.999932    0.00000116
   61       -6.2839287464      -0.0000000000     0.999932    0.00000098
  
--------------------------------------------------
 Final SA-REKS(2,2) energy:      -6.28392875
  
 State     Energy      FON(1)    FON(2)   Spin
  PPS   -6.40769211   1.999863  0.000137  0.00
  OSS   -6.16016538   1.000000  1.000000  0.00
 Trip   -6.24257407   1.000000  1.000000  1.00
--------------------------------------------------

 Lagrangian Wab:   0.00879841  0.00879807

--------------------------------------------------
 SSR: 2SI-2SA-REKS(2,2) Hamiltonian matrix
               PPS           OSS
   PPS    -6.40769211    0.01233950
   OSS     0.01233950   -6.16016538
--------------------------------------------------

----------------------------------------------------------------
 SSR: 2SI-2SA-REKS(2,2) states
                    E_n       C_{PPS}    C_{OSS}
 SSR state  1   -6.40830573  -0.998766   0.049667
 SSR state  2   -6.15955177  -0.049667  -0.998766
----------------------------------------------------------------

 unrelaxed SSR FONs for S0:  1.997397  0.002603

Total Energy:                       -6.4083057266 H         -174.3789 eV
Extrapolated to 0:                  -6.4083057266 H         -174.3789 eV

----------------------------------------------------------------------------------
 Solving CP-REKS equation for  1 state vector...
----------------------------------------------------------------------------------
  CG solver: Constructing Y initial guess
  CG solver: Iteration    1    eps =    0.000179252882
  CG solver: Iteration    2    eps =    0.000085111136
  CG solver: Iteration    3    eps =    0.000023924605
  CG solver: Iteration    4    eps =    0.000001133364
  CG solver: Iteration    5    eps =    0.000000016500
  CG solver: Iteration    6    eps =    0.000000007887
  Convergence reached in CG solver after    6 iterations
  CG solver: Calculating converged R, Z, Q2 matrix
----------------------------------------------------------------------------------

----------------------------------------------------------------------------------
 Solving CP-REKS equation for SI between  1 and  2 state vectors...
----------------------------------------------------------------------------------
  CG solver: Constructing Y initial guess
  CG solver: Iteration    1    eps =    0.004221168228
  CG solver: Iteration    2    eps =    0.006460257978
  CG solver: Iteration    3    eps =    0.000764491386
  CG solver: Iteration    4    eps =    0.000008885198
  CG solver: Iteration    5    eps =    0.000001172814
  CG solver: Iteration    6    eps =    0.000000017610
  CG solver: Iteration    7    eps =    0.000000000508
  Convergence reached in CG solver after    7 iterations
  CG solver: Calculating converged R, Z, Q2 matrix
----------------------------------------------------------------------------------

--------------------------------------------------
 Gradient Information
--------------------------------------------------
           1 st state (SSR)
    -0.00219251    -0.00446784     0.01314382
     0.00141341     0.00526539    -0.01181366
     0.01499627    -0.00478464     0.00507746
     0.01651009    -0.00121752    -0.00501077
    -0.01676837     0.00007780    -0.00462865
    -0.01395889     0.00512681     0.00323180

           2 st state (SSR)
    -0.00022132    -0.00737428     0.12541183
    -0.00000153     0.00898010    -0.13934367
    -0.01671310    -0.01059570     0.02013518
    -0.01327802     0.00589435    -0.01301064
     0.01423314    -0.00492101    -0.01311648
     0.01598083     0.00801654     0.01992377
--------------------------------------------------
 Coupling Information
--------------------------------------------------
 between  1 and  2 states
--------------------------------------------------
 g vector - difference gradient
    -0.00101285     0.00163645    -0.05965322
     0.00072244    -0.00199792     0.06677135
     0.01759875     0.00234672    -0.00737293
     0.01683581    -0.00336781     0.00409670
    -0.01746373     0.00229347     0.00429566
    -0.01668042    -0.00091090    -0.00813757

 h vector - derivative coupling
    -0.00022434     0.00176553    -0.03250575
     0.00011493    -0.00131757     0.02698236
     0.01670428    -0.00574928     0.00193838
     0.01873490     0.00206363     0.00077164
    -0.01891752    -0.00218980     0.00030795
    -0.01641225     0.00542749     0.00250541

 G vector - GDV
    -0.00098560     0.00145322    -0.05613400
     0.00070747    -0.00185735     0.06376500
     0.01585468     0.00290553    -0.00752886
     0.01489405    -0.00355593     0.00399993
    -0.01550075     0.00249940     0.00424392
    -0.01496986    -0.00144487    -0.00834599

 H vector - DCV - non-adiabatic coupling
    -0.00130135     0.00771516    -0.15382108
     0.00074789    -0.00606738     0.13456533
     0.07383942    -0.02206235     0.00481337
     0.08165802     0.00691176     0.00472061
    -0.08263899    -0.00784494     0.00294512
    -0.07230499     0.02134776     0.00677664
--------------------------------------------------


--------------------------------------------------------------------------------
DFTB+ running times                          cpu [s]             wall clock [s]
--------------------------------------------------------------------------------
Global initialisation                  +     0.00  (  2.2%)      0.01  ( 22.6%)
SCC                                    +     0.03  ( 69.6%)      0.03  ( 52.8%)
Post-SCC processing                    +     0.01  ( 27.0%)      0.01  ( 20.8%)
  Force calculation                          0.01  ( 26.4%)      0.01  ( 18.9%)
--------------------------------------------------------------------------------
Missing                                +     0.00  (  1.2%)      0.00  (  3.8%)
Total                                  =     0.04  (100.0%)      0.05  (100.0%)
--------------------------------------------------------------------------------
