     6
  Step:     0            Position(A)                                  Velocity(au)
C        -0.03242516     0.02142742     0.03729398    -0.00008643    -0.00005534     0.00021568
N        -0.04148457    -0.04555371     1.28411476    -0.00014277     0.00009654    -0.00023119
H         0.89592092    -0.06551206    -0.54064199    -0.00044063     0.00011385     0.00076249
H         0.81044172    -0.14989652     1.85501666     0.00055790    -0.00061278     0.00116692
H        -0.94237212    -0.12005416     1.84084581     0.00243984    -0.00022978    -0.00079985
H        -1.01406414     0.04338410    -0.55208672     0.00045676     0.00004661    -0.00048686
     6
  Step:     1            Position(A)                                  Velocity(au)
C        -0.03292359     0.02117800     0.03802825    -0.00009597    -0.00003579     0.00005193
N        -0.04229003    -0.04502833     1.28323229    -0.00014899     0.00009553    -0.00009062
H         0.89375902    -0.06508626    -0.53645019    -0.00034414     0.00004140     0.00076562
H         0.81364403    -0.15338304     1.86136782     0.00059897    -0.00065975     0.00114370
H        -0.92887505    -0.12143596     1.83627363     0.00246867    -0.00027738    -0.00085793
H        -1.01146938     0.04349800    -0.55454369     0.00049052    -0.00000520    -0.00041091
     6
  Step:     2            Position(A)                                  Velocity(au)
C        -0.03347524     0.02103575     0.03786221    -0.00010564    -0.00001617    -0.00011249
N        -0.04311487    -0.04450845     1.28312324    -0.00014956     0.00009451     0.00005061
H         0.89215538    -0.06505902    -0.53226461    -0.00023746    -0.00003176     0.00075919
H         0.81699566    -0.15711556     1.86753099     0.00061270    -0.00070209     0.00109783
H        -0.91535996    -0.12308926     1.83145833     0.00244086    -0.00032916    -0.00088536
H        -1.00869689     0.04332717    -0.55658291     0.00052098    -0.00005758    -0.00033446
     6
  Step:     3            Position(A)                                  Velocity(au)
C        -0.03408021     0.02100093     0.03679660    -0.00011516     0.00000340    -0.00027552
N        -0.04392757    -0.04399356     1.28378642    -0.00014431     0.00009366     0.00019036
H         0.89115909    -0.06543401    -0.52813777    -0.00012349    -0.00010527     0.00074331
H         0.82035253    -0.16107025     1.87338796     0.00060129    -0.00074015     0.00103166
H        -0.90214995    -0.12503991     1.82657975     0.00235201    -0.00038597    -0.00087789
H        -1.00576517     0.04286757    -0.55820567     0.00054779    -0.00011065    -0.00025919
     6
  Step:     4            Position(A)                                  Velocity(au)
C        -0.03473701     0.02107298     0.03484348    -0.00012422     0.00002274    -0.00043498
N        -0.04469597    -0.04348222     1.28520889    -0.00013317     0.00009313     0.00032642
H         0.89080238    -0.06621239    -0.52412056    -0.00000544    -0.00017847     0.00071831
H         0.82358371    -0.16522504     1.87883440     0.00056725    -0.00077401     0.00094775
H        -0.88959013    -0.12731820     1.82183972     0.00219861    -0.00044837    -0.00083195
H        -1.00269503     0.04211479    -0.55942270     0.00057030    -0.00016433    -0.00018684
     6
  Step:     5            Position(A)                                  Velocity(au)
C        -0.03544233     0.02125032     0.03202677    -0.00013243     0.00004163    -0.00058847
N        -0.04538786    -0.04297231     1.28736579    -0.00011623     0.00009298     0.00045647
H         0.89109941    -0.06739104    -0.52026103     0.00011330    -0.00025034     0.00068475
H         0.82657286    -0.16955783     1.88378072     0.00051338    -0.00080338     0.00084882
H        -0.87804065    -0.12995663     1.81745688     0.00197902    -0.00051635    -0.00074531
H        -0.99951144     0.04106562    -0.56025451     0.00058746    -0.00021815    -0.00011923
     6
  Step:     6            Position(A)                                  Velocity(au)
C        -0.03619080     0.02153001     0.02838333    -0.00013940     0.00005977    -0.00073334
N        -0.04597189    -0.04246146     1.29021995    -0.00009380     0.00009322     0.00057812
H         0.89204617    -0.06896055    -0.51660354     0.00022942    -0.00031948     0.00064335
H         0.82921945    -0.17404439     1.88815252     0.00044271    -0.00082761     0.00073772
H        -0.86786485    -0.13298656     1.81365789     0.00169462    -0.00058918    -0.00061791
H        -0.99624605     0.03972001    -0.56073162     0.00059772    -0.00027130    -0.00005824
     6
  Step:     7            Position(A)                                  Velocity(au)
C        -0.03697485     0.02190738     0.02396451    -0.00014471     0.00007679    -0.00086662
N        -0.04641903    -0.04194748     1.29372150    -0.00006650     0.00009376     0.00068886
H         0.89362160    -0.07090337    -0.51318818     0.00033983    -0.00038425     0.00059495
H         0.83143995    -0.17865641     1.89189104     0.00035861    -0.00084577     0.00061746
H        -0.85941031    -0.13643399     1.81066364     0.00135085    -0.00066535    -0.00045262
H        -0.99294017     0.03808305    -0.56089479     0.00059906    -0.00032263    -0.00000573
     6
  Step:     8            Position(A)                                  Velocity(au)
C        -0.03778471     0.02237584     0.01883764    -0.00014795     0.00009233    -0.00098513
N        -0.04670433    -0.04142867     1.29780769    -0.00003531     0.00009449     0.00078627
H         0.89578938    -0.07319296    -0.51005028     0.00044181    -0.00044292     0.00054052
H         0.83316950    -0.18336041     1.89495371     0.00026483    -0.00085689     0.00049125
H        -0.85298543    -0.14031523     1.80867233     0.00095791    -0.00074255    -0.00025560
H        -0.98964751     0.03616629    -0.56079479     0.00058908    -0.00037086     0.00003650
     6
  Step:     9            Position(A)                                  Velocity(au)
C        -0.03860842     0.02292682     0.01308707    -0.00014875     0.00010602    -0.00108574
N        -0.04680892    -0.04090416     1.30240316    -0.00000160     0.00009524     0.00086810
H         0.89849990    -0.07579388    -0.50721998     0.00053295    -0.00049392     0.00048117
H         0.83436408    -0.18811788     1.89731527     0.00016556    -0.00086021     0.00036262
H        -0.84883352    -0.14463295     1.80784136     0.00053089    -0.00081788    -0.00003636
H        -0.98643584     0.03398818    -0.56049172     0.00056536    -0.00041471     0.00006693
     6
  Step:    10            Position(A)                                  Velocity(au)
C        -0.03943208     0.02354991     0.00681372    -0.00014684     0.00011756    -0.00116572
N        -0.04672204    -0.04037398     1.30742135     0.00003295     0.00009583     0.00093262
H         0.90169151    -0.07866290    -0.50472159     0.00061117    -0.00053602     0.00041817
H         0.83500302    -0.19288675     1.89896953     0.00006542    -0.00085540     0.00023538
H        -0.84710607    -0.14937283     1.80826971     0.00008933    -0.00088800     0.00019287
H        -0.98338642     0.03157355    -0.56005355     0.00052599    -0.00045315     0.00008442
     6
  Step:    11            Position(A)                                  Velocity(au)
C        -0.04024031     0.02423326     0.00013236    -0.00014207     0.00012677    -0.00122337
N        -0.04644275    -0.03983917     1.31276739     0.00006645     0.00009612     0.00097900
H         0.90529185    -0.08175067    -0.50257287     0.00067486    -0.00056843     0.00035295
H         0.83509113    -0.19762392     1.89993106    -0.00003078    -0.00084281     0.00011355
H        -0.84784081    -0.15450130     1.80998473    -0.00034459    -0.00094953     0.00041835
H        -0.98059048     0.02895231    -0.55955358     0.00046998    -0.00048550     0.00008844
     6
  Step:    12            Position(A)                                  Velocity(au)
C        -0.04101699     0.02496411    -0.00683384    -0.00013448     0.00013361    -0.00125844
N        -0.04598072    -0.03930170     1.31834276     0.00009706     0.00009599     0.00100757
H         0.90922005    -0.08500420    -0.50078421     0.00072315    -0.00059107     0.00028706
H         0.83465960    -0.20228891     1.90023628    -0.00011843    -0.00082365     0.00000103
H        -0.85095025    -0.15996552     1.81293668    -0.00074873    -0.00099962     0.00062675
H        -0.97814341     0.02615744    -0.55906692     0.00039764    -0.00051165     0.00007923
     6
  Step:    13            Position(A)                                  Velocity(au)
C        -0.04174642     0.02572963    -0.01396137    -0.00012435     0.00013825    -0.00127262
N        -0.04535569    -0.03876417     1.32405159     0.00012325     0.00009542     0.00102015
H         0.91339071    -0.08837026    -0.49935800     0.00075628    -0.00060463     0.00022204
H         0.83376482    -0.20684829     1.89994263    -0.00019355    -0.00080003    -0.00009886
H        -0.85622612    -0.16569643     1.81700389    -0.00110437    -0.00103659     0.00080721
H        -0.97613721     0.02322213    -0.55866627     0.00031057    -0.00053219     0.00005776
     6
  Step:    14            Position(A)                                  Velocity(au)
C        -0.04241452     0.02651795    -0.02113678    -0.00011213     0.00014107    -0.00126950
N        -0.04459549    -0.03822927     1.32980830     0.00014402     0.00009450     0.00101995
H         0.91771992    -0.09179961    -0.49828868     0.00077572    -0.00061064     0.00015921
H         0.83248430    -0.21128041     1.89912515    -0.00025332    -0.00077480    -0.00018388
H        -0.86336226    -0.17161574     1.82200895    -0.00139910    -0.00106033     0.00095301
H        -0.97465286     0.02017619    -0.55841772     0.00021142    -0.00054841     0.00002562
     6
  Step:    15            Position(A)                                  Velocity(au)
C        -0.04300994     0.02731928    -0.02826713    -0.00009837     0.00014257    -0.00125397
N        -0.04373276    -0.03769924     1.33554514     0.00015899     0.00009340     0.00101101
H         0.92213210    -0.09525146    -0.49756389     0.00078388    -0.00061120     0.00009943
H         0.83091018    -0.21557936     1.89787052    -0.00029622    -0.00075117    -0.00025305
H        -0.87199231    -0.17764509     1.82774315    -0.00162797    -0.00107223     0.00106199
H        -0.97375477     0.01704221    -0.55837752     0.00010314    -0.00056215    -0.00001532
     6
  Step:    16            Position(A)                                  Velocity(au)
C        -0.04352455     0.02812665    -0.03528657    -0.00008360     0.00014328    -0.00123093
N        -0.04280146    -0.03717533     1.34121653     0.00016826     0.00009231     0.00099731
H         0.92656517    -0.09869637    -0.49716671     0.00078343    -0.00060842     0.00004301
H         0.82914180    -0.21975660     1.89626974    -0.00032176    -0.00073203    -0.00030652
H        -0.88173226    -0.18371475     1.83399241    -0.00179219    -0.00107438     0.00113562
H        -0.97348907     0.01383285    -0.55859057    -0.00001154    -0.00057535    -0.00006320
     6
  Step:    17            Position(A)                                  Velocity(au)
C        -0.04395322     0.02893600    -0.04215621    -0.00006819     0.00014364    -0.00120416
N        -0.04183420    -0.03665763     1.34679816     0.00017217     0.00009138     0.00098179
H         0.93097190    -0.10211652    -0.49707855     0.00077652    -0.00060393    -0.00001018
H         0.82727958    -0.22383917     1.89441196    -0.00033006    -0.00071945    -0.00034503
H        -0.89221438    -0.18976777     1.84055679    -0.00189627    -0.00106864     0.00117713
H        -0.97388500     0.01055034    -0.55909060    -0.00013030    -0.00058952    -0.00011629
     6
  Step:    18            Position(A)                                  Velocity(au)
C        -0.04429305     0.02974554    -0.04885800    -0.00005239     0.00014387    -0.00117579
N        -0.04086098    -0.03614539     1.35228169     0.00017109     0.00009067     0.00096598
H         0.93531693    -0.10550287    -0.49728144     0.00076428    -0.00059853    -0.00006045
H         0.82542184    -0.22786510     1.89238108    -0.00032134    -0.00071443    -0.00036944
H        -0.90310403    -0.19575874     1.84725921    -0.00194531    -0.00105597     0.00118996
H        -0.97495756     0.00718869    -0.55990117    -0.00025099    -0.00060550    -0.00017294
     6
  Step:    19            Position(A)                                  Velocity(au)
C        -0.04454265     0.03055476    -0.05538549    -0.00003638     0.00014403    -0.00114642
N        -0.03990915    -0.03563742     1.35766683     0.00016534     0.00009016     0.00095014
H         0.93957117    -0.10885081    -0.49775868     0.00074690    -0.00059231    -0.00010797
H         0.82366404    -0.23187748     1.89025528    -0.00029587    -0.00071704    -0.00038044
H        -0.91410185    -0.20164892     1.85394550    -0.00194388    -0.00103649     0.00117706
H        -0.97670901     0.00373764    -0.56103637    -0.00037128    -0.00062336    -0.00023142
     6
  Step:    20            Position(A)                                  Velocity(au)
C        -0.04470171     0.03136337    -0.06173540    -0.00002036     0.00014405    -0.00111581
N        -0.03900375    -0.03513259     1.36295442     0.00015523     0.00008979     0.00093380
H         0.94370669    -0.11215614    -0.49849425     0.00072411    -0.00058493    -0.00015283
H         0.82209843    -0.23591940     1.88810775    -0.00025417    -0.00072677    -0.00037870
H        -0.92493917    -0.20740133     1.86048078    -0.00189613    -0.00100989     0.00114105
H        -0.97912801     0.00018663    -0.56250070    -0.00048836    -0.00064270    -0.00028989
     6
  Step:    21            Position(A)                                  Velocity(au)
C        -0.04477101     0.03217078    -0.06790306    -0.00000454     0.00014385    -0.00108351
N        -0.03816776    -0.03463011     1.36814257     0.00014113     0.00008948     0.00091630
H         0.94769451    -0.11541281    -0.49947319     0.00069565    -0.00057596    -0.00019509
H         0.82081265    -0.24003066     1.88600693    -0.00019730    -0.00074281    -0.00036508
H        -0.93537337    -0.21297820     1.86674617    -0.00180641    -0.00097593     0.00108456
H        -0.98218758    -0.00347244    -0.56428845    -0.00059910    -0.00066288    -0.00034638
     6
  Step:    22            Position(A)                                  Velocity(au)
C        -0.04475256     0.03297583    -0.07388111     0.00001081     0.00014333    -0.00104922
N        -0.03742175    -0.03412950     1.37322573     0.00012354     0.00008919     0.00089712
H         0.95150467    -0.11861245    -0.50068109     0.00066152    -0.00056507    -0.00023474
H         0.81988676    -0.24424604     1.88401534    -0.00012705    -0.00076425    -0.00034085
H        -0.94518830    -0.21834113     1.87263823    -0.00167975    -0.00093476     0.00101052
H        -0.98584365    -0.00724403    -0.56638351    -0.00070033    -0.00068326    -0.00039903
     6
  Step:    23            Position(A)                                  Velocity(au)
C        -0.04464982     0.03377689    -0.07966047     0.00002542     0.00014245    -0.00101295
N        -0.03678342    -0.03363065     1.37819555     0.00010305     0.00008887     0.00087605
H         0.95510741    -0.12174488    -0.50210360     0.00062203    -0.00055211    -0.00027177
H         0.81938897    -0.24859470     1.88218745    -0.00004599    -0.00079013    -0.00030770
H        -0.95419638    -0.22345289     1.87806983    -0.00152191    -0.00088693     0.00092217
H        -0.99003531    -0.01112888    -0.56875994    -0.00078917    -0.00070327    -0.00044619
     6
  Step:    24            Position(A)                                  Velocity(au)
C        -0.04446768     0.03457204    -0.08523189     0.00003903     0.00014119    -0.00097496
N        -0.03626696    -0.03313361     1.38304242     0.00008038     0.00008852     0.00085312
H         0.95847489    -0.12479919    -0.50372641     0.00057777    -0.00053712    -0.00030620
H         0.81937142    -0.25309999     1.88056740     0.00004270    -0.00081951    -0.00026770
H        -0.96224225    -0.22827976     1.88297170    -0.00133926    -0.00083343     0.00082300
H        -0.99468676    -0.01512462    -0.57138336    -0.00086328    -0.00072252    -0.00048655
     6
  Step:    25            Position(A)                                  Velocity(au)
C        -0.04421236     0.03535930    -0.09058743     0.00005143     0.00013958    -0.00093572
N        -0.03588260    -0.03263854     1.38775689     0.00005624     0.00008813     0.00082857
H         0.96158274    -0.12776470    -0.50553535     0.00052953    -0.00052029    -0.00033812
H         0.81986755    -0.25777942     1.87918713     0.00013547    -0.00085143    -0.00022319
H        -0.96920620    -0.23279360     1.88729360    -0.00113844    -0.00077549     0.00071652
H        -0.99971052    -0.01922654    -0.57421299    -0.00092101    -0.00074074    -0.00051922
     6
  Step:    26            Position(A)                                  Velocity(au)
C        -0.04389114     0.03613677    -0.09572148     0.00006246     0.00013765    -0.00089575
N        -0.03563645    -0.03214563     1.39233086     0.00003139     0.00008771     0.00080279
H         0.96441108    -0.13063180    -0.50751680     0.00047824    -0.00050190    -0.00036767
H         0.82089003    -0.26264475     1.87806534     0.00022855    -0.00088495    -0.00017658
H        -0.97500438    -0.23697316     1.89100405    -0.00092579    -0.00071444     0.00060604
H        -1.00501152    -0.02342846    -0.57720394    -0.00096148    -0.00075779    -0.00054371
     6
  Step:    27            Position(A)                                  Velocity(au)
C        -0.04351204     0.03690278    -0.10063124     0.00007202     0.00013547    -0.00085563
N        -0.03553061    -0.03165511     1.39675828     0.00000650     0.00008725     0.00077621
H         0.96694506    -0.13339239    -0.50965795     0.00042480    -0.00048227    -0.00039506
H         0.82243021    -0.26770213     1.87720720     0.00031824    -0.00091914    -0.00013021
H        -0.97958685    -0.24080442     1.89408890    -0.00070712    -0.00065160     0.00049448
H        -1.01049126    -0.02772345    -0.58030949    -0.00098446    -0.00077365    -0.00055993
     6
  Step:    28            Position(A)                                  Velocity(au)
C        -0.04308352     0.03765593    -0.10531676     0.00008007     0.00013307    -0.00081584
N        -0.03556352    -0.03116720     1.40103548    -0.00001780     0.00008676     0.00074926
H         0.96917494    -0.13604015    -0.51194712     0.00037012    -0.00046172    -0.00042051
H         0.82445890    -0.27295224     1.87660509     0.00040108    -0.00095307    -0.00008625
H        -0.98293427    -0.24428046     1.89654929    -0.00048757    -0.00058820     0.00038439
H        -1.01605158    -0.03210437    -0.58348314    -0.00099033    -0.00078832    -0.00056805
     6
  Step:    29            Position(A)                                  Velocity(au)
C        -0.04261411     0.03839514    -0.10978068     0.00008661     0.00013052    -0.00077679
N        -0.03573027    -0.03068213     1.40516107    -0.00004098     0.00008624     0.00072232
H         0.97109587    -0.13857050    -0.51437393     0.00031500    -0.00044055    -0.00044429
H         0.82692821    -0.27839064     1.87623997     0.00047399    -0.00098590    -0.00004654
H        -0.98505481    -0.24740101     1.89839974    -0.00027167    -0.00052536     0.00027795
H        -1.02159762    -0.03656424    -0.58668010    -0.00097989    -0.00080187    -0.00056851
     6
  Step:    30            Position(A)                                  Velocity(au)
C        -0.04211223     0.03911962    -0.11402769     0.00009170     0.00012787    -0.00073878
N        -0.03602312    -0.03020015     1.40913563    -0.00006258     0.00008568     0.00069568
H         0.97270740    -0.14098048    -0.51692940     0.00026017    -0.00041900    -0.00046663
H         0.82977430    -0.28400819     1.87608318     0.00053445    -0.00101683    -0.00001260
H        -0.98598081    -0.25017186     1.89966622    -0.00006340    -0.00046406     0.00017702
H        -1.02704016    -0.04109655    -0.58985840    -0.00095429    -0.00081439    -0.00056186
     6
  Step:    31            Position(A)                                  Velocity(au)
C        -0.04158597     0.03982883    -0.11806407     0.00009540     0.00012515    -0.00070203
N        -0.03643191    -0.02972151     1.41296122    -0.00008220     0.00008508     0.00066956
H         0.97401295    -0.14326843    -0.51960593     0.00020624    -0.00039727    -0.00048779
H         0.83292054    -0.28979156     1.87609864     0.00058046    -0.00104517     0.00001443
H        -0.98576572    -0.25260411     1.90038449     0.00013376    -0.00040516     0.00008318
H        -1.03229735    -0.04569531    -0.59297976    -0.00091492    -0.00082597    -0.00054879
     6
  Step:    32            Position(A)                                  Velocity(au)
C        -0.04104290     0.04052243    -0.12189707     0.00009780     0.00012239    -0.00066665
N        -0.03694455    -0.02924643     1.41664100    -0.00009955     0.00008446     0.00064407
H         0.97501927    -0.14543370    -0.52239727     0.00015376    -0.00037550    -0.00050799
H         0.83628096    -0.29572394     1.87624494     0.00061067    -0.00107035     0.00003381
H        -0.98448140    -0.25471351     1.90059860     0.00031678    -0.00034943    -0.00000220
H        -1.03729586    -0.05035521    -0.59601005    -0.00086329    -0.00083673    -0.00053004
     6
  Step:    33            Position(A)                                  Velocity(au)
C        -0.04049003     0.04120029    -0.12553453     0.00009902     0.00011962    -0.00063269
N        -0.03754741    -0.02877509     1.42017869    -0.00011437     0.00008381     0.00061929
H         0.97573598    -0.14747631    -0.52529844     0.00010318    -0.00035376    -0.00052746
H         0.83976365    -0.30178582     1.87647749     0.00062429    -0.00109196     0.00004512
H        -0.98221587    -0.25651980     1.90035986     0.00048295    -0.00029749    -0.00007791
H        -1.04197136    -0.05507166    -0.59891939    -0.00080102    -0.00084680    -0.00050636
     6
  Step:    34            Position(A)                                  Velocity(au)
C        -0.03993367     0.04186237    -0.12898445     0.00009919     0.00011685    -0.00060011
N        -0.03822573    -0.02830759     1.42357820    -0.00012651     0.00008316     0.00059516
H         0.97617505    -0.14939651    -0.52830578     0.00005488    -0.00033203    -0.00054642
H         0.84327422    -0.30795600     1.87675037     0.00062114    -0.00110979     0.00004827
H        -0.97907139    -0.25804601     1.89972581     0.00062988    -0.00024986    -0.00014291
H        -1.04626885    -0.05984102    -0.60168226    -0.00072977    -0.00085637    -0.00047850
     6
  Step:    35            Position(A)                                  Velocity(au)
C        -0.03937939     0.04250877    -0.13225433     0.00009844     0.00011411    -0.00056878
N        -0.03896402    -0.02784391     1.42684302    -0.00013586     0.00008253     0.00057157
H         0.97635046    -0.15119422    -0.53141702     0.00000919    -0.00031016    -0.00056519
H         0.84671889    -0.31421275     1.87701795     0.00060155    -0.00112388     0.00004339
H        -0.97516271    -0.25931765     1.89875966     0.00075544    -0.00020688    -0.00019617
H        -1.05014297    -0.06466093    -0.60427737    -0.00065127    -0.00086574    -0.00044720
     6
  Step:    36            Position(A)                                  Velocity(au)
C        -0.03883184     0.04313960    -0.13535076     0.00009697     0.00011140    -0.00053846
N        -0.03974638    -0.02738381     1.42997577    -0.00014238     0.00008196     0.00054832
H         0.97627790    -0.15286814    -0.53463185    -0.00003358    -0.00028775    -0.00058423
H         0.85000735    -0.32053542     1.87723604     0.00056636    -0.00113465     0.00003079
H        -0.97061585    -0.26036155     1.89753007     0.00085770    -0.00016853    -0.00023668
H        -1.05355844    -0.06953118    -0.60668767    -0.00056743    -0.00087548    -0.00041321
     6
  Step:    37            Position(A)                                  Velocity(au)
C        -0.03829446     0.04375507    -0.13827861     0.00009510     0.00010871    -0.00050862
N        -0.04055699    -0.02692689     1.43297761    -0.00014618     0.00008149     0.00052498
H         0.97597474    -0.15441353    -0.53795337    -0.00007303    -0.00026351    -0.00060471
H         0.85305539    -0.32690728     1.87736240     0.00051686    -0.00114348     0.00001064
H        -0.96556670    -0.26120321     1.89611169     0.00093508    -0.00013379    -0.00026305
H        -1.05649134    -0.07445580    -0.60890039    -0.00048076    -0.00088700    -0.00037742
     6
  Step:    38            Position(A)                                  Velocity(au)
C        -0.03776838     0.04435531    -0.14103863     0.00009394     0.00010601    -0.00047550
N        -0.04138106    -0.02647254     1.43584657    -0.00014790     0.00008106     0.00049885
H         0.97546116    -0.15581500    -0.54139434    -0.00010625    -0.00023103    -0.00063392
H         0.85578742    -0.33332294     1.87735506     0.00045552    -0.00115664    -0.00001823
H        -0.96015891    -0.26185769     1.89458837     0.00098628    -0.00009459    -0.00027067
H        -1.05893483    -0.07945051    -0.61090833    -0.00039968    -0.00090747    -0.00034328
     6
  Step:    39            Position(A)                                  Velocity(au)
C        -0.03724446     0.04494005    -0.14359366     0.00008853     0.00010376    -0.00040958
N        -0.04221015    -0.02602080     1.43855365    -0.00014482     0.00007998     0.00044878
H         0.97478715    -0.15699591    -0.54503911    -0.00008539    -0.00022752    -0.00069863
H         0.85814706    -0.33983583     1.87715859     0.00039061    -0.00113589    -0.00003379
H        -0.95454233    -0.26226052     1.89308622     0.00100101    -0.00007070    -0.00026363
H        -1.06095883    -0.08459920    -0.61273744    -0.00034868    -0.00091372    -0.00035978
     6
  Step:    40            Position(A)                                  Velocity(au)
C        -0.03677936     0.04551450    -0.14561427     0.00007692     0.00010217    -0.00031747
N        -0.04299894    -0.02557906     1.44086015    -0.00013581     0.00007840     0.00037951
H         0.97450719    -0.15835679    -0.54919911    -0.00001607    -0.00026793    -0.00078550
H         0.86015120    -0.34601264     1.87697758     0.00032244    -0.00106779    -0.00003073
H        -0.94897600    -0.26264749     1.89164324     0.00097987    -0.00008012    -0.00025114
H        -1.06283010    -0.08965821    -0.61492762    -0.00031557    -0.00089106    -0.00042343
     6
  Step:    41            Position(A)                                  Velocity(au)
C        -0.03638568     0.04608064    -0.14713789     0.00007736     0.00012185    -0.00027966
N        -0.04372635    -0.02514556     1.44279046    -0.00014944     0.00009320     0.00037959
H         0.97460774    -0.15998706    -0.55380827     0.00005877    -0.00038444    -0.00104256
H         0.86174677    -0.35175650     1.87681557     0.00029683    -0.00119416    -0.00003514
H        -0.94360318    -0.26315499     1.89028253     0.00112913    -0.00013008    -0.00028075
H        -1.06448180    -0.09454682    -0.61746455    -0.00032988    -0.00103841    -0.00058405
     6
  Step:    42            Position(A)                                  Velocity(au)
C        -0.03596830     0.04675137    -0.14865463     0.00007256     0.00011867    -0.00026447
N        -0.04453217    -0.02462560     1.44486086    -0.00013839     0.00009340     0.00036260
H         0.97481375    -0.16207164    -0.55960786     0.00001384    -0.00036140    -0.00103684
H         0.86312145    -0.35836924     1.87650410     0.00019262    -0.00117726    -0.00007886
H        -0.93743400    -0.26389423     1.88879518     0.00106940    -0.00013708    -0.00024514
H        -1.06600726    -0.10032832    -0.62056362    -0.00021738    -0.00103627    -0.00052658
     6
  Step:    43            Position(A)                                  Velocity(au)
C        -0.03557654     0.04740403    -0.15008711     0.00006816     0.00011550    -0.00024980
N        -0.04526961    -0.02410403     1.44683401    -0.00012515     0.00009389     0.00034517
H         0.97476213    -0.16401726    -0.56537059    -0.00003330    -0.00033576    -0.00103007
H         0.86389475    -0.36488478     1.87593619     0.00008249    -0.00116013    -0.00012633
H        -0.93167770    -0.26468360     1.88754887     0.00098319    -0.00014881    -0.00019551
H        -1.06690588    -0.10610285    -0.62333676    -0.00010549    -0.00103629    -0.00046803
     6
  Step:    44            Position(A)                                  Velocity(au)
C        -0.03520860     0.04803871    -0.15143890     0.00006405     0.00011236    -0.00023581
N        -0.04592704    -0.02357916     1.44870808    -0.00010998     0.00009469     0.00032748
H         0.97444263    -0.16581398    -0.57108879    -0.00008202    -0.00030872    -0.00102187
H         0.86404087    -0.37129981     1.87509599    -0.00003122    -0.00114249    -0.00017603
H        -0.92647557    -0.26555289     1.88661606     0.00087311    -0.00016597    -0.00013382
H        -1.06718301    -0.11187859    -0.62578024     0.00000517    -0.00103753    -0.00040907
     6