     6
  Step:     0            Position(A)                                  Velocity(au)
C        -0.04321474     0.02948403    -0.00433189     0.00001757     0.00005034     0.00003184
N        -0.03270573    -0.06750104     1.31307857     0.00001706     0.00000172    -0.00000138
H         0.92663568    -0.02651915    -0.47480478    -0.00057379    -0.00008745     0.00061453
H         0.79916102    -0.07972058     1.84939783    -0.00038131    -0.00021992    -0.00058713
H        -0.96921837    -0.01897420     1.89154580     0.00035629     0.00008007    -0.00023514
H        -1.00007680     0.04212095    -0.56948045     0.00015242    -0.00039645    -0.00015237
     6
  Step:     1            Position(A)                                  Velocity(au)
C        -0.04306740     0.03014167    -0.00550342     0.00000718     0.00006959    -0.00024138
N        -0.03288028    -0.06758138     1.31443899    -0.00004959    -0.00001615     0.00024496
H         0.92055097    -0.02749435    -0.46873925    -0.00050520    -0.00006062     0.00047824
H         0.79657972    -0.08194820     1.84389809    -0.00006292    -0.00022242    -0.00039918
H        -0.96231816    -0.01825409     1.88723495     0.00088476     0.00008445    -0.00053636
H        -0.99764058     0.03788369    -0.57067887     0.00028697    -0.00040612    -0.00007040
     6
  Step:     2            Position(A)                                  Velocity(au)
C        -0.04305772     0.03100635    -0.00961246    -0.00000662     0.00008790    -0.00049980
N        -0.03379056    -0.06785443     1.31843759    -0.00011423    -0.00003322     0.00047641
H         0.91558354    -0.02784525    -0.46434247    -0.00037261    -0.00000227     0.00030935
H         0.79778453    -0.08458637     1.84066508     0.00029216    -0.00026410    -0.00018408
H        -0.94986248    -0.01712678     1.87981184     0.00134567     0.00012554    -0.00078866
H        -0.99379883     0.03323640    -0.57102068     0.00040106    -0.00044503    -0.00000119
     6
  Step:     3            Position(A)                                  Velocity(au)
C        -0.04321221     0.03206468    -0.01643744    -0.00002175     0.00010464    -0.00073370
N        -0.03537923    -0.06830803     1.32486128    -0.00016988    -0.00004904     0.00068455
H         0.91239951    -0.02754402    -0.46197171    -0.00018441     0.00005463     0.00011069
H         0.80297129    -0.08772580     1.83987101     0.00064318    -0.00030927     0.00003371
H        -0.93287911    -0.01550758     1.86998160     0.00168306     0.00017203    -0.00095812
H        -0.98886670     0.02814771    -0.57070499     0.00047808    -0.00048283     0.00004397
     6
  Step:     4            Position(A)                                  Velocity(au)
C        -0.04353345     0.03329551    -0.02566365    -0.00003586     0.00011915    -0.00093596
N        -0.03750703    -0.06892721     1.33341339    -0.00020894    -0.00006352     0.00086253
H         0.91154932    -0.02665004    -0.46192102     0.00004556     0.00010741    -0.00011017
H         0.81185525    -0.09135220     1.84140255     0.00094768    -0.00035318     0.00023000
H        -0.91304239    -0.01336323     1.85885122     0.00183521     0.00022488    -0.00100686
H        -0.98333985     0.02267357    -0.57005876     0.00050242    -0.00051619     0.00005413
     6
  Step:     5            Position(A)                                  Velocity(au)
C        -0.04399668     0.03467141    -0.03691346    -0.00004639     0.00013102    -0.00110258
N        -0.03995022    -0.06969776     1.34373075    -0.00022436    -0.00007692     0.00100557
H         0.91339621    -0.02519421    -0.46438191     0.00029712     0.00015904    -0.00034266
H         0.82370365    -0.09545225     1.84490280     0.00116994    -0.00039579     0.00038650
H        -0.89273041    -0.01058783     1.84795462     0.00174222     0.00029139    -0.00089981
H        -0.97787530     0.01685497    -0.56952071     0.00046139    -0.00054692     0.00002078
     6
  Step:     6            Position(A)                                  Velocity(au)
C        -0.04454840     0.03616181    -0.04978480    -0.00005089     0.00014006    -0.00123297
N        -0.04241532    -0.07061005     1.35541214    -0.00021157    -0.00008972     0.00111188
H         0.91804947    -0.02317067    -0.46941731     0.00054562     0.00021262    -0.00057463
H         0.83744982    -0.10001085     1.84985802     0.00128708    -0.00043669     0.00049369
H        -0.87492808    -0.00698847     1.83916625     0.00136594     0.00037895    -0.00061742
H        -0.97324606     0.01070858    -0.56960417     0.00034781    -0.00057708    -0.00006044
     6
  Step:     7            Position(A)                                  Velocity(au)
C        -0.04510991     0.03773548    -0.06388703    -0.00004749     0.00014633    -0.00132942
N        -0.04457869    -0.07166052     1.36805519    -0.00017071    -0.00010239     0.00118332
H         0.92533278    -0.02054277    -0.47695302     0.00076567     0.00027043    -0.00079419
H         0.85186089    -0.10500558     1.85570324     0.00129187    -0.00047510     0.00055115
H        -0.86284777    -0.00229749     1.83444730     0.00071766     0.00049226    -0.00017117
H        -0.97026629     0.00423026    -0.57084290     0.00016302    -0.00060841    -0.00018810
     6
  Step:     8            Position(A)                                  Velocity(au)
C        -0.04558741     0.03936308    -0.07886837    -0.00003552     0.00015003    -0.00139623
N        -0.04614990    -0.07285006     1.38129954    -0.00010804    -0.00011510     0.00122556
H         0.93479992    -0.01725440    -0.48679178     0.00093540     0.00033413    -0.00099160
H         0.86571186    -0.11040461     1.86191547     0.00119194    -0.00051032     0.00056566
H        -0.85922795     0.00378075     1.83542157    -0.00012185     0.00062995     0.00038713
H        -0.96967964    -0.00260154    -0.57371924    -0.00008083    -0.00064206    -0.00035423
     6
  Step:     9            Position(A)                                  Velocity(au)
C        -0.04588688     0.04101765    -0.09443233    -0.00001567     0.00015139    -0.00143876
N        -0.04694233    -0.07417851     1.39486655    -0.00003518    -0.00012744     0.00124697
H         0.94579650    -0.01323312    -0.49864610     0.00103966     0.00040460    -0.00116033
H         0.87793679    -0.11616978     1.86807820     0.00100634    -0.00054190     0.00054841
H        -0.86551340     0.01148386     1.84291652    -0.00100970     0.00078240     0.00097284
H        -0.97203463    -0.00981604    -0.57859241    -0.00036064    -0.00067816    -0.00054488
     6
  Step:    10            Position(A)                                  Velocity(au)
C        -0.04593012     0.04267504    -0.11034396     0.00001002     0.00015064    -0.00146248
N        -0.04691962    -0.07563798     1.40857948     0.00003423    -0.00013851     0.00125646
H         0.95754437    -0.00840307    -0.51217629     0.00107131     0.00048174    -0.00129734
H         0.88772749    -0.12225962     1.87391293     0.00076084    -0.00056971     0.00051228
H        -0.88131702     0.02089731     1.85670434    -0.00178223     0.00093327     0.00149409
H        -0.97756936    -0.01743767    -0.58563952    -0.00064497    -0.00071562    -0.00074219
     6
  Step:    11            Position(A)                                  Velocity(au)
C        -0.04566769     0.04431329    -0.12642683     0.00003864     0.00014795    -0.00147230
N        -0.04619344    -0.07720862     1.42235406     0.00008878    -0.00014724     0.00126097
H         0.96923345    -0.00269417    -0.52702798     0.00103103     0.00056471    -0.00140264
H         0.89458165    -0.12863338     1.87928530     0.00048388    -0.00059402     0.00047011
H        -0.90450302     0.03190084     1.87560258    -0.00230940     0.00106459     0.00188155
H        -0.98614451    -0.02547156    -0.59482932    -0.00089953    -0.00075212    -0.00092779
     6
  Step:    12            Position(A)                                  Velocity(au)
C        -0.04508488     0.04591178    -0.14255329     0.00006709     0.00014340    -0.00147205
N        -0.04497745    -0.07885923     1.43616556     0.00012193    -0.00015282     0.00126417
H         0.98010017     0.00395107    -0.54286175     0.00092556     0.00065219    -0.00147848
H         0.89831319    -0.13525488     1.88419753     0.00020371    -0.00061539     0.00043374
H        -0.93183965     0.04418720     1.89786693    -0.00252929     0.00116272     0.00210478
H        -0.99724839    -0.03389181    -0.60593663    -0.00109378    -0.00078461    -0.00108617
     6
  Step:    13            Position(A)                                  Velocity(au)
C        -0.04419992     0.04745047    -0.15863081     0.00009268     0.00013703    -0.00146428
N        -0.04352601    -0.08055192     1.45001012     0.00013216    -0.00015488     0.00126663
H         0.98948181     0.01157378    -0.55937245     0.00076575     0.00074264    -0.00152855
H         0.89903815    -0.14209617     1.88877413    -0.00005335    -0.00063473     0.00041351
H        -0.95983606     0.05733753     1.92164857    -0.00244737     0.00122139     0.00216907
H        -1.01007310    -0.04263636    -0.61859142    -0.00120602    -0.00080990    -0.00120707
     6
  Step:    14            Position(A)                                  Velocity(au)
C        -0.04305722     0.04890957    -0.17458716     0.00011345     0.00012887    -0.00145027
N        -0.04208614    -0.08224751     1.46387552     0.00012131    -0.00015347     0.00126696
H         0.99685249     0.02019780    -0.57630167     0.00056492     0.00083448    -0.00155742
H         0.89714611    -0.14914075     1.89324385    -0.00026426    -0.00065323     0.00041790
H        -0.98538049     0.07090755     1.94531955    -0.00211233     0.00124117     0.00210113
H        -1.02363232    -0.05160989    -0.63234353    -0.00122588    -0.00082533    -0.00128612
     6
  Step:    15            Position(A)                                  Velocity(au)
C        -0.04171794     0.05026966    -0.19035830     0.00012825     0.00011898    -0.00143053
N        -0.04087223    -0.08390935     1.47772734     0.00009269    -0.00014892     0.00126315
H         1.00184043     0.02982973    -0.59344398     0.00033732     0.00092629    -0.00157000
H         0.89325691    -0.15638678     1.89791644    -0.00041086    -0.00067227     0.00045290
H        -1.00604738     0.08449053     1.96761473    -0.00158896     0.00122692     0.00193445
H        -1.03689159    -0.06069210    -0.64672776    -0.00115385    -0.00082919    -0.00132417
     6
  Step:    16            Position(A)                                  Velocity(au)
C        -0.04025144     0.05151239    -0.20588263     0.00013663     0.00010748    -0.00140511
N        -0.04005827    -0.08550543     1.49150930     0.00005004    -0.00014169     0.00125348
H         1.00423203     0.04046211    -0.61064853     0.00009737     0.00101692    -0.00157130
H         0.88815774    -0.16384805     1.90315194    -0.00048182    -0.00069322     0.00052130
H        -1.02014196     0.09774878     1.98763927    -0.00094019     0.00118537     0.00170043
H        -1.04887497    -0.06975004    -0.66131239    -0.00099873    -0.00082087    -0.00132571
     6
  Step:    17            Position(A)                                  Velocity(au)
C        -0.03872888     0.05262109    -0.22109783     0.00013860     0.00009457    -0.00137390
N        -0.03977758    -0.08700911     1.50514958    -0.00000292    -0.00013229     0.00123687
H         1.00397049     0.05207681    -0.62781921    -0.00014090     0.00110548    -0.00156625
H         0.88271607    -0.17155219     1.90932083    -0.00047506    -0.00071701     0.00062175
H        -1.02661584     0.11042287     2.00481495    -0.00022029     0.00112372     0.00142530
H        -1.05874079    -0.07865022    -0.67573025    -0.00077471    -0.00080073    -0.00129729
     6
  Step:    18            Position(A)                                  Velocity(au)
C        -0.03721933     0.05358134    -0.23593924     0.00013445     0.00008045    -0.00133664
N        -0.04012209    -0.08839956     1.51856824    -0.00006220    -0.00012132     0.00121285
H         1.00114947     0.06464650    -0.64491328    -0.00036422     0.00119160    -0.00155959
H         0.87776493    -0.17953412     1.91675399    -0.00039929    -0.00074384     0.00074839
H        -1.02496113     0.12233230     2.01882054     0.00052440     0.00104947     0.00113086
H        -1.06582331    -0.08726749    -0.68969306    -0.00049861    -0.00077001    -0.00124621
     6
  Step:    19            Position(A)                                  Velocity(au)
C        -0.03578753     0.05438111    -0.25033938     0.00012466     0.00006535    -0.00129308
N        -0.04113833    -0.08966315     1.53168290    -0.00012331    -0.00010952     0.00118132
H         0.99600256     0.07814537    -0.66193812    -0.00056051     0.00127550    -0.00155568
H         0.87398091    -0.18782505     1.92569324    -0.00027392    -0.00077269     0.00089101
H        -1.01514366     0.13338194     2.02955459     0.00125085     0.00097119     0.00083705
H        -1.06964887    -0.09549577    -0.70299352    -0.00018829    -0.00073072    -0.00117985
     6
  Step:    20            Position(A)                                  Velocity(au)
C        -0.03449208     0.05501103    -0.26422786     0.00010988     0.00004952    -0.00124297
N        -0.04281976    -0.09079562     1.54441180    -0.00018100    -0.00009794     0.00114229
H         0.98888721     0.09255051    -0.67894665    -0.00071951     0.00135766    -0.00155835
H         0.87177238    -0.19643830     1.93624660    -0.00012662    -0.00080131     0.00103624
H        -0.99759635     0.14357889     2.03713257     0.00191391     0.00089986     0.00056515
H        -1.06994248    -0.10325342    -0.71550460     0.00013817    -0.00068533    -0.00110537
     6
  Step:    21            Position(A)                                  Velocity(au)
C        -0.03338372     0.05546448    -0.27753172     0.00009094     0.00003322    -0.00118610
N        -0.04509802    -0.09180570     1.55667278    -0.00022928    -0.00008796     0.00109553
H         0.98026197     0.10784677    -0.69603004    -0.00083343     0.00143896    -0.00157060
H         0.87121095    -0.20535530     1.94836299     0.00001164    -0.00082635     0.00116957
H        -0.97327329     0.15306808     2.04191828     0.00246157     0.00085060     0.00034053
H        -1.06662609    -0.11048861    -0.72717552     0.00046283    -0.00063679    -0.00102960
     6
  Step:    22            Position(A)                                  Velocity(au)
C        -0.03250266     0.05573776    -0.29017609     0.00006898     0.00001673    -0.00112234
N        -0.04783571    -0.09271981     1.56837857    -0.00026181    -0.00008142     0.00104024
H         0.97065422     0.12403055    -0.71330652    -0.00089805     0.00152055    -0.00159414
H         0.87202707    -0.21451618     1.96183317     0.00011253    -0.00084395     0.00127779
H        -0.94374472     0.16218750     2.04458240     0.00283397     0.00084409     0.00019395
H        -1.05981718    -0.11718450    -0.73802899     0.00076782    -0.00058855    -0.00095920
     6
  Step:    23            Position(A)                                  Velocity(au)
C        -0.03187470     0.05583041    -0.30208506     0.00004554     0.00000037    -0.00105165
N        -0.05082554    -0.09358693     1.57943005    -0.00027270    -0.00008053     0.00097516
H         0.96061545     0.14111168    -0.73090482    -0.00091362     0.00160359    -0.00162894
H         0.87367267    -0.22381825     1.97631718     0.00015569    -0.00085053     0.00135106
H        -0.91127471     0.17153420     2.04616131     0.00296955     0.00090622     0.00015915
H        -1.04982849    -0.12336429    -0.74815991     0.00103529    -0.00054449    -0.00090079
     6
  Step:    24            Position(A)                                  Velocity(au)
C        -0.03150640     0.05574579    -0.31318299     0.00002259    -0.00001548    -0.00097414
N        -0.05380149    -0.09448166     1.58971204    -0.00025800    -0.00008751     0.00089902
H         0.95066711     0.15911210    -0.74894264    -0.00088547     0.00168895    -0.00167289
H         0.87543300    -0.23312320     1.99139028     0.00013199    -0.00084351     0.00138408
H        -0.87878012     0.18201270     2.04806412     0.00282194     0.00106401     0.00026468
H        -1.03716818    -0.12909630    -0.75773541     0.00124767    -0.00050892    -0.00086089
     6
  Step:    25            Position(A)                                  Velocity(au)
C        -0.03138052     0.05549185    -0.32339630     0.00000245    -0.00003035    -0.00089011
N        -0.05646976    -0.09550144     1.59909779    -0.00021762    -0.00010385     0.00081160
H         0.94124416     0.17806059    -0.76750243    -0.00082385     0.00177682    -0.00172166
H         0.87656014    -0.24227154     2.00659650     0.00004419    -0.00082178     0.00137629
H        -0.84953941     0.19481142     2.05195165     0.00238609     0.00133607     0.00051944
H        -1.02253325    -0.13449788    -0.76699351     0.00138865    -0.00048636    -0.00084571
     6
  Step:    26            Position(A)                                  Velocity(au)
C        -0.03145286     0.05508192    -0.33265581    -0.00001242    -0.00004372    -0.00080008
N        -0.05856244    -0.09675357     1.60746742    -0.00015695    -0.00012934     0.00071492
H         0.93264377     0.19798345    -0.78660729    -0.00074300     0.00186647    -0.00176892
H         0.87639981    -0.25110129     2.02149929    -0.00009462    -0.00078600     0.00133134
H        -0.82657988     0.21124168     2.05942778     0.00172190     0.00171911     0.00089731
H        -1.00678870    -0.13973626    -0.77623693     0.00144479    -0.00048122    -0.00086052
     6
  Step:    27            Position(A)                                  Velocity(au)
C        -0.03165231     0.05453534    -0.34089962    -0.00001982    -0.00005508    -0.00070488
N        -0.05990324    -0.09833099     1.61473794    -0.00008663    -0.00016136     0.00061361
H         0.92498962     0.21889308    -0.80620089    -0.00065917     0.00195602    -0.00180697
H         0.87449011    -0.25946669     2.03572218    -0.00026421    -0.00073838     0.00125600
H        -0.81186955     0.23242029     2.07158196     0.00095516     0.00217820     0.00133217
H        -0.99092566    -0.14502550    -0.78581912     0.00140820    -0.00049712    -0.00090856
     6
  Step:    28            Position(A)                                  Velocity(au)
C        -0.03188642     0.05387698    -0.34807645    -0.00001827    -0.00006397    -0.00060564
N        -0.06045754    -0.10028373     1.62089123    -0.00001990    -0.00019518     0.00051397
H         0.91822309     0.24077503    -0.82613817    -0.00058823     0.00204263    -0.00182775
H         0.87061971    -0.26725468     2.04897661    -0.00044086    -0.00068237     0.00115898
H        -0.80568397     0.25889389     2.08857161     0.00024370     0.00265029     0.00173294
H        -0.97598152    -0.15061178    -0.79611352     0.00127971    -0.00053601    -0.00098957
     6
  Step:    29            Position(A)                                  Velocity(au)
C        -0.03205208     0.05313593    -0.35414915    -0.00000751    -0.00007012    -0.00050381
N        -0.06033857    -0.10260092     1.62598207     0.00003159    -0.00022534     0.00042183
H         0.91212095     0.26357950    -0.84618647    -0.00054334     0.00212291    -0.00182386
H         0.86484552    -0.27439486     2.06107707    -0.00060093    -0.00062202     0.00104985
H        -0.80653811     0.29040048     2.10949344    -0.00027651     0.00306355     0.00201401
H        -0.96292962    -0.15675167    -0.80746776     0.00107136    -0.00059736    -0.00109834
     6
  Step:    30            Position(A)                                  Velocity(au)
C        -0.03205075     0.05234291    -0.35909833     0.00001135    -0.00007355    -0.00040116
N        -0.05976644    -0.10521357     1.63011962     0.00006096    -0.00024751     0.00034061
H         0.90633647     0.28721782    -0.86603867    -0.00053338     0.00219338    -0.00178947
H         0.85747314    -0.28086262     2.07194406    -0.00072388    -0.00056137     0.00093791
H        -0.81173326     0.32591482     2.13263194    -0.00053209     0.00336145     0.00212261
H        -0.95254356    -0.16368016    -0.82014180     0.00080701    -0.00067761    -0.00122402
     6
  Step:    31            Position(A)                                  Velocity(au)
C        -0.03180373     0.05152697    -0.36292518     0.00003598    -0.00007452    -0.00029961
N        -0.05900497    -0.10801561     1.63343363     0.00006668    -0.00025947     0.00027079
H         0.90045229     0.31156399    -0.88533458    -0.00056242     0.00225104    -0.00172081
H         0.84900930    -0.28667594     2.08159563    -0.00079433    -0.00050391     0.00083119
H        -0.81817870     0.36393854     2.15592969    -0.00051826     0.00351691     0.00204759
H        -0.94527471    -0.17157565    -0.83424564     0.00051962    -0.00077038    -0.00135076
     6
  Step:    32            Position(A)                                  Velocity(au)
C        -0.03126355     0.05071261    -0.36565280     0.00006332    -0.00007356    -0.00020111
N        -0.05830761    -0.11088988     1.63604373     0.00005113    -0.00026111     0.00021068
H         0.89403246     0.33646361    -0.90368466    -0.00063003     0.00229375    -0.00161636
H         0.84009573    -0.29188665     2.09012796    -0.00080355    -0.00045223     0.00073550
H        -0.82307130     0.40285391     2.17742681    -0.00027710     0.00353108     0.00180960
H        -0.94117581    -0.18053373    -0.84969229     0.00024570    -0.00086751    -0.00145990
     6
  Step:    33            Position(A)                                  Velocity(au)
C        -0.03041857     0.04991762    -0.36732476     0.00009021    -0.00007131    -0.00010733
N        -0.05788637    -0.11372789     1.63804263     0.00001859    -0.00025368     0.00015768
H         0.88666926     0.36174414    -0.92069563    -0.00073209     0.00232040    -0.00147678
H         0.83143011    -0.29656936     2.09768606    -0.00075042    -0.00040778     0.00065353
H        -0.82424082     0.44118764     2.19551811     0.00013086     0.00342292     0.00144451
H        -0.93989961    -0.19055402    -0.86618372     0.00001839    -0.00096053    -0.00153330
     6
  Step:    34            Position(A)                                  Velocity(au)
C        -0.02928995     0.04915261    -0.36800085     0.00011406    -0.00006837    -0.00001947
N        -0.05790096    -0.11643971     1.63949319    -0.00002618    -0.00023900     0.00010930
H         0.87801664     0.38722682    -0.93599204    -0.00086211     0.00233093    -0.00130441
H         0.82367891    -0.30080771     2.10442507    -0.00064172    -0.00037075     0.00058423
H        -0.82020859     0.47773693     2.20902822     0.00064669     0.00321816     0.00098998
H        -0.94077340    -0.20154710    -0.88323626    -0.00013810    -0.00104234    -0.00155656
     6
  Step:    35            Position(A)                                  Velocity(au)
C        -0.02792337     0.04842184    -0.36775077     0.00013307    -0.00006526     0.00006189
N        -0.05845911    -0.11895650     1.64043384    -0.00007861    -0.00021893     0.00006369
H         0.86780894     0.41273762    -0.94923200    -0.00101228     0.00232623    -0.00110287
H         0.81739124    -0.30468012     2.11046715    -0.00049149    -0.00034007     0.00052276
H        -0.81009327     0.51159097     2.21717591     0.00122190     0.00294219     0.00047869
H        -0.94292086    -0.21335713    -0.90023641    -0.00021137    -0.00110830    -0.00152106
     6
  Step:    36            Position(A)                                  Velocity(au)
C        -0.02637870     0.04772485    -0.36664687     0.00014637    -0.00006234     0.00013681
N        -0.05962076    -0.12122927     1.64088660    -0.00013455    -0.00019521     0.00001964
H         0.85587099     0.43811755    -0.96011938    -0.00117423     0.00230810    -0.00087673
H         0.81292672    -0.30824731     2.11586144    -0.00031908    -0.00031379     0.00046119
H        -0.79347720     0.54210307     2.21950048     0.00181916     0.00261772    -0.00006306
H        -0.94539761    -0.22579326    -0.91651239    -0.00020019    -0.00115656    -0.00142443
     6
  Step:    37            Position(A)                                  Velocity(au)
C        -0.02472123     0.04705809    -0.36475781     0.00015375    -0.00005982     0.00020585
N        -0.06140269    -0.12322699     1.64086351    -0.00019025    -0.00016942    -0.00002362
H         0.84212046     0.46323175    -0.96841216    -0.00133960     0.00227910    -0.00063116
H         0.81041083    -0.31154485     2.12055649    -0.00014627    -0.00028961     0.00038993
H        -0.77029571     0.56885852     2.21579633     0.00240931     0.00226540    -0.00061371
H        -0.94730034    -0.23865898    -0.93139854    -0.00011180    -0.00118770    -0.00126957
     6
  Step:    38            Position(A)                                  Velocity(au)
C        -0.02301506     0.04641618    -0.36214359     0.00015549    -0.00005785     0.00026993
N        -0.06378274    -0.12493571     1.64036984    -0.00024231    -0.00014319    -0.00006674
H         0.82656469     0.48797720    -0.97392730    -0.00150050     0.00224244    -0.00037168
H         0.80972671    -0.31458319     2.12439197     0.00000610    -0.00026561     0.00029966
H        -0.74076884     0.59166310     2.20607442     0.00296753     0.00190647    -0.00115377
H        -0.94784335    -0.25177636    -0.94428674     0.00004140    -0.00120410    -0.00106313
     6
  Step:    39            Position(A)                                  Velocity(au)
C        -0.02131962     0.04579241    -0.35885252     0.00015210    -0.00005655     0.00033022
N        -0.06670378    -0.12635949     1.63940336    -0.00028774    -0.00011830    -0.00011060
H         0.80929413     0.51228950    -0.97654340    -0.00164974     0.00220194    -0.00010394
H         0.81054429    -0.31735561     2.12711215     0.00012123    -0.00024087     0.00018309
H        -0.70537523     0.61056619     2.19055549     0.00346999     0.00156604    -0.00166311
H        -0.94639470    -0.26500097    -0.95465665     0.00024467    -0.00120927    -0.00081396
     6
  Step:    40            Position(A)                                  Velocity(au)
C        -0.01968759     0.04517897    -0.35491938     0.00014423    -0.00005603     0.00038798
N        -0.07007759    -0.12752373     1.63795033    -0.00032389    -0.00009695    -0.00015648
H         0.79047343     0.53614876    -0.97620128    -0.00178103     0.00216187     0.00016641
H         0.81237879    -0.31985274     2.12839747     0.00018836    -0.00021597     0.00003631
H        -0.66485607     0.62592332     2.16969063     0.00389222     0.00127636    -0.00211921
H        -0.94249071    -0.27823151    -0.96209371     0.00048283    -0.00120735    -0.00053200
     6
  Step:    41            Position(A)                                  Velocity(au)
C        -0.01816434     0.04456659    -0.35036475     0.00013257    -0.00005643     0.00044451
N        -0.07378959    -0.12848038     1.63597996    -0.00034867    -0.00008180    -0.00020619
H         0.77033071     0.55958447    -0.97290276    -0.00188917     0.00212689     0.00043399
H         0.81466500    -0.32208042     2.12790652     0.00020361    -0.00019313    -0.00014069
H        -0.62022541     0.63848899     2.14419371     0.00420999     0.00107832    -0.00249715
H        -0.93583193    -0.29141403    -0.96629522     0.00074118    -0.00120280    -0.00022764
     6
  Step:    42            Position(A)                                  Velocity(au)
C        -0.01678729     0.04394435    -0.34519477     0.00011790    -0.00005792     0.00050114
N        -0.07770550    -0.12931336     1.63343959    -0.00036077    -0.00007584    -0.00026171
H         0.74914426     0.58267865    -0.96670697    -0.00197032     0.00210184     0.00069386
H         0.81683305    -0.32407792     2.12531964     0.00016954    -0.00017614    -0.00034418
H        -0.57275448     0.64951352     2.11506062     0.00440370     0.00101878    -0.00277284
H        -0.92627606    -0.30454515    -0.96707368     0.00100572    -0.00120039     0.00008852
     6
  Step:    43            Position(A)                                  Velocity(au)
C        -0.01558509     0.04329948    -0.33940134     0.00010106    -0.00006065     0.00055913
N        -0.08168223    -0.13013952     1.63025448    -0.00036018    -0.00008158    -0.00032474
H         0.72722614     0.60556616    -0.95772327    -0.00202233     0.00209135     0.00094197
H         0.81837390    -0.32593379     2.12037695     0.00009405    -0.00017009    -0.00056731
H        -0.52388603     0.66077676     2.08353255     0.00446621     0.00114034    -0.00293003
H        -0.91382990    -0.31767494    -0.96435870     0.00126311    -0.00120518     0.00040563
     6
  Step:    44            Position(A)                                  Velocity(au)
C        -0.01457647     0.04261754    -0.33296282     0.00008303    -0.00006475     0.00061965
N        -0.08558511    -0.13109814     1.62633523    -0.00034863    -0.00009979    -0.00039589
H         0.70490189     0.62843096    -0.94609947    -0.00204508     0.00209954     0.00117562
H         0.81889050    -0.32779891     2.11290875    -0.00001108    -0.00018115    -0.00080080
H        -0.47504757     0.67446059     2.05096070     0.00441108     0.00146257    -0.00296970
H        -0.89864309    -0.33091085    -0.95819965     0.00150049    -0.00122267     0.00071262
     6