|===============================================================================
|
|  DFTB+ release 20.1
|
|  Copyright (C) 2006 - 2020  DFTB+ developers group
|
|===============================================================================
|
|  When publishing results obtained with DFTB+, please cite the following
|  reference:
|
|  * DFTB+, a software package for efficient approximate density functional
|    theory based atomistic simulations, J. Chem. Phys. 152, 124101 (2020).
|    [doi: 10.1063/1.5143190]
|
|  You should also cite additional publications crediting the parametrization
|  data you use. Please consult the documentation of the SK-files for the
|  references.
|
|===============================================================================

Reading input file 'dftb_in.hsd'
Parser version: 8

--------------------------------------------------------------------------------
Reading SK-files:
Done.


Processed input in HSD format written to 'dftb_pin.hsd'

Starting initialization...
--------------------------------------------------------------------------------
OpenMP threads:              1
Chosen random seed:          511515979
Mode:                        Static calculation
Self consistent charges:     Yes
SCC-tolerance:                 0.100000E-05
Max. scc iterations:                   1000
Shell resolved Hubbard:      No
Spin polarisation:           No
Nr. of up electrons:             6.000000
Nr. of down electrons:           6.000000
Periodic boundaries:         No
Electronic solver:           Relatively robust
Maximal SCC-cycles:                    1000
Initial charges:             Set automatically (system chrg:   0.100E+01)
Included shells:             C:  s, p
                             N:  s, p
                             H:  s
Spin coupling constants:     C   1(s)-1(s):  -0.455900E-01
                             C   1(s)-2(p):  -0.293000E-01
                             C   2(p)-1(s):  -0.293000E-01
                             C   2(p)-2(p):  -0.275500E-01
                             N   1(s)-1(s):  -0.468700E-01
                             N   1(s)-2(p):  -0.317000E-01
                             N   2(p)-1(s):  -0.317000E-01
                             N   2(p)-2(p):  -0.307200E-01
                             H   1(s)-1(s):  -0.792500E-01
Range separated hybrid:      Yes
  Screening parameter omega:   0.300000E+00
  Range separated algorithm:   MatrixBased
Extra options:
                             Mulliken analysis
                             Force calculation
Force type                   original
                             Eigenvector printing


REKS Calcuation:             Yes
SSR(2,2) Calcuation:         Yes
Energy Functional:           (PPS+OSS)/2
Number of Core Orbitals:                  5
Number of Active Orbitals:                2
Number of Basis:                         12
Number of States:                         2
State-Averaging Weight:          0.500000
                                 0.500000
State of Interest:                        1
Initial Guess:               Diagonalize H0 matrix
Newton-Raphson for FON opt:  Yes
NR max. Iterations:                      50
Level Shifting:              Yes
Shift Value:                     0.300000
W Scale Factor:              C  =    3.000000
                             N  =    3.000000
                             H  =    3.000000
Transition Dipole:           No
Gradient of Microstate:      No
CP-REKS Solver:              Preconditioned Conjugate-Gradient
CG max. Iterations:                     100
CG Tolerance:                  0.100000E-07
Memory for A and Hxc:        Direct Updating Without Saving
Non-Adiabatic Coupling:      Yes

--------------------------------------------------------------------------------

***  Geometry step: 0

  iSCC       reks energy        Diff energy         x_a       SCC error   
    1       -6.2665879670       0.0000000000     0.999814    1.19868208
    2       -6.2765363635      -0.0099483965     0.999910    0.06671310
    3       -6.2799818732      -0.0034455097     0.999945    0.02404649
    4       -6.2817011919      -0.0017193187     0.999961    0.01001184
    5       -6.2826011861      -0.0008999942     0.999968    0.00870609
    6       -6.2830735632      -0.0004723770     0.999972    0.00705040
    7       -6.2833199098      -0.0002463466     0.999974    0.00546006
    8       -6.2834475391      -0.0001276293     0.999975    0.00410698
    9       -6.2835133770      -0.0000658379     0.999976    0.00302999
   10       -6.2835472827      -0.0000339057     0.999976    0.00220663
   11       -6.2835647582      -0.0000174755     0.999977    0.00159301
   12       -6.2835737933      -0.0000090351     0.999977    0.00114326
   13       -6.2835784888      -0.0000046955     0.999977    0.00081724
   14       -6.2835809464      -0.0000024575     0.999977    0.00058267
   15       -6.2835822439      -0.0000012975     0.999977    0.00041474
   16       -6.2835829359      -0.0000006920     0.999977    0.00030531
   17       -6.2835833092      -0.0000003733     0.999977    0.00023799
   18       -6.2835835130      -0.0000002038     0.999977    0.00018577
   19       -6.2835836257      -0.0000001127     0.999977    0.00014518
   20       -6.2835836888      -0.0000000631     0.999977    0.00011355
   21       -6.2835837246      -0.0000000358     0.999977    0.00008889
   22       -6.2835837452      -0.0000000205     0.999977    0.00006962
   23       -6.2835837571      -0.0000000119     0.999977    0.00005456
   24       -6.2835837641      -0.0000000070     0.999977    0.00004278
   25       -6.2835837682      -0.0000000041     0.999977    0.00003378
   26       -6.2835837706      -0.0000000025     0.999977    0.00002677
   27       -6.2835837721      -0.0000000015     0.999977    0.00002120
   28       -6.2835837730      -0.0000000009     0.999977    0.00001677
   29       -6.2835837735      -0.0000000005     0.999977    0.00001326
   30       -6.2835837739      -0.0000000003     0.999977    0.00001048
   31       -6.2835837741      -0.0000000002     0.999977    0.00000828
   32       -6.2835837742      -0.0000000001     0.999977    0.00000653
   33       -6.2835837743      -0.0000000001     0.999977    0.00000515
   34       -6.2835837743      -0.0000000000     0.999977    0.00000406
   35       -6.2835837743      -0.0000000000     0.999977    0.00000320
   36       -6.2835837743      -0.0000000000     0.999977    0.00000253
   37       -6.2835837744      -0.0000000000     0.999977    0.00000199
   38       -6.2835837744      -0.0000000000     0.999977    0.00000157
   39       -6.2835837744      -0.0000000000     0.999977    0.00000123
   40       -6.2835837744      -0.0000000000     0.999977    0.00000097
  
--------------------------------------------------
 Final SA-REKS(2,2) energy:      -6.28358377
  
 State     Energy      FON(1)    FON(2)   Spin
  PPS   -6.41526524   1.999954  0.000046  0.00
  OSS   -6.15190231   1.000000  1.000000  0.00
 Trip   -6.22926497   1.000000  1.000000  1.00
--------------------------------------------------

 Lagrangian Wab:  -0.00175571 -0.00175564

--------------------------------------------------
 SSR: 2SI-2SA-REKS(2,2) Hamiltonian matrix
               PPS           OSS
   PPS    -6.41526524   -0.00247096
   OSS    -0.00247096   -6.15190231
--------------------------------------------------

----------------------------------------------------------------
 SSR: 2SI-2SA-REKS(2,2) states
                    E_n       C_{PPS}    C_{OSS}
 SSR state  1   -6.41528842  -0.999956  -0.009381
 SSR state  2   -6.15187913   0.009381  -0.999956
----------------------------------------------------------------

 unrelaxed SSR FONs for S0:  1.999866  0.000134

Total Energy:                       -6.4152884183 H         -174.5689 eV
Extrapolated to 0:                  -6.4152884183 H         -174.5689 eV

----------------------------------------------------------------------------------
 Solving CP-REKS equation for  1 state vector...
----------------------------------------------------------------------------------
  CG solver: Constructing Y initial guess
  CG solver: Iteration    1    eps =    0.000035156797
  CG solver: Iteration    2    eps =    0.000003609021
  CG solver: Iteration    3    eps =    0.000000262040
  CG solver: Iteration    4    eps =    0.000000008750
  Convergence reached in CG solver after    4 iterations
  CG solver: Calculating converged R, Z, Q2 matrix
----------------------------------------------------------------------------------

----------------------------------------------------------------------------------
 Solving CP-REKS equation for SI between  1 and  2 state vectors...
----------------------------------------------------------------------------------
  CG solver: Constructing Y initial guess
  CG solver: Iteration    1    eps =    0.000477145106
  CG solver: Iteration    2    eps =    0.000198424322
  CG solver: Iteration    3    eps =    0.000073542746
  CG solver: Iteration    4    eps =    0.000001111261
  CG solver: Iteration    5    eps =    0.000000136160
  CG solver: Iteration    6    eps =    0.000000006775
  Convergence reached in CG solver after    6 iterations
  CG solver: Calculating converged R, Z, Q2 matrix
----------------------------------------------------------------------------------

--------------------------------------------------
 Gradient Information
--------------------------------------------------
           1 st state (SSR)
    -0.00585680    -0.01015361     0.03552412
     0.01920462     0.00394759    -0.04679179
    -0.00380665     0.00329152    -0.00674659
    -0.01215692     0.00120719     0.00653822
    -0.00223469     0.00150424     0.00901307
     0.00485044     0.00020307     0.00246296

           2 st state (SSR)
     0.00574941    -0.00361263     0.14594453
    -0.00869484     0.00533535    -0.17568543
     0.00124683     0.01215891     0.01466298
     0.00691265    -0.00260198    -0.00209256
    -0.00102041     0.00775361    -0.00196594
    -0.00419365    -0.01903326     0.01913643
--------------------------------------------------
 Coupling Information
--------------------------------------------------
 between  1 and  2 states
--------------------------------------------------
 g vector - difference gradient
    -0.00582534    -0.00332617    -0.05523776
     0.01395894    -0.00059818     0.06446595
    -0.00263242    -0.00443619    -0.01070756
    -0.00966142     0.00184416     0.00430306
    -0.00049002    -0.00313673     0.00551207
     0.00465027     0.00965311    -0.00833575

 h vector - derivative coupling
     0.00113027     0.00293641     0.00095083
    -0.00036001    -0.00510674    -0.00041472
     0.00560799     0.00009120     0.00004773
     0.00665953     0.00323817     0.00069747
    -0.00624724     0.00061274    -0.00115086
    -0.00679054    -0.00177177    -0.00013045

 G vector - GDV
    -0.00580311    -0.00327049    -0.05521020
     0.01394973    -0.00069388     0.06444682
    -0.00252674    -0.00443369    -0.01070478
    -0.00953478     0.00190458     0.00431539
    -0.00060714    -0.00312469     0.00548950
     0.00452205     0.00961817    -0.00833673

 H vector - DCV - non-adiabatic coupling
     0.00470509     0.01138265     0.00754340
    -0.00236074    -0.01934109    -0.00616576
     0.02147377     0.00066215     0.00094383
     0.02596576     0.01215978     0.00234091
    -0.02367776     0.00254919    -0.00476094
    -0.02610612    -0.00741268     0.00009856
--------------------------------------------------


--------------------------------------------------------------------------------
DFTB+ running times                          cpu [s]             wall clock [s]
--------------------------------------------------------------------------------
SCC                                    +     0.02  ( 63.2%)      0.02  ( 57.1%)
Post-SCC processing                    +     0.01  ( 32.3%)      0.01  ( 28.6%)
--------------------------------------------------------------------------------
Missing                                +     0.00  (  4.5%)      0.01  ( 14.3%)
Total                                  =     0.03  (100.0%)      0.04  (100.0%)
--------------------------------------------------------------------------------
