     6
  Step:   120            Position(A)                                  Velocity(au)
C        -0.03173493     0.05229360    -0.06004495     0.00006070    -0.00008064     0.00063474
N        -0.05508011    -0.01086056     1.38097206    -0.00005574     0.00002544    -0.00055428
H         0.65600230    -0.69265180    -0.54242166    -0.00125780    -0.00111069     0.00053433
H         0.81236509     0.06586464     1.96065795    -0.00061926     0.00148959    -0.00026824
H        -0.62992079    -0.84069519     1.69587031     0.00136667    -0.00134803    -0.00054373
H        -0.90781695     0.32547760    -0.69704281     0.00056163     0.00157647     0.00041651
