     6
  Step:     0            Position(A)                                  Velocity(au)
C        -0.04054305     0.01950215     0.01096751    -0.00005285    -0.00002223     0.00001619
N        -0.04525475    -0.04868449     1.31046131     0.00010356    -0.00003688    -0.00003730
H         0.93643623    -0.02030900    -0.51333573     0.00023056     0.00023059    -0.00029882
H         0.87153620    -0.17055734     1.83367516    -0.00076667     0.00019578    -0.00001460
H        -0.90480352    -0.06979566     1.80612068    -0.00058592     0.00027665     0.00035102
H        -1.00411720     0.03503159    -0.57574017     0.00031268     0.00007432     0.00028781
     6
  Step:     1            Position(A)                                  Velocity(au)
C        -0.04083713     0.01942041     0.01072136    -0.00005417    -0.00000774    -0.00010624
N        -0.04463275    -0.04888370     1.31051460     0.00012247    -0.00003598     0.00005706
H         0.93767712    -0.01917573    -0.51495104     0.00021993     0.00018451    -0.00029049
H         0.86705830    -0.16957961     1.83347893    -0.00086288     0.00016082    -0.00005303
H        -0.90855208    -0.06843521     1.80839475    -0.00077298     0.00022199     0.00047385
H        -1.00227096     0.03530212    -0.57401016     0.00035945     0.00002485     0.00034275
     6
  Step:     2            Position(A)                                  Velocity(au)
C        -0.04113539     0.01941755     0.00980571    -0.00005439     0.00000655    -0.00022840
N        -0.04391545    -0.04907799     1.31108526     0.00013827    -0.00003512     0.00015172
H         0.93884128    -0.01829130    -0.51651239     0.00020267     0.00013997    -0.00027976
H         0.86210008    -0.16879863     1.83309524    -0.00094166     0.00012402    -0.00008207
H        -0.91325648    -0.06736807     1.81130248    -0.00093407     0.00016977     0.00058224
H        -1.00018640     0.03530335    -0.57199203     0.00039979    -0.00002387     0.00039281
     6
  Step:     3            Position(A)                                  Velocity(au)
C        -0.04143171     0.01949203     0.00822471    -0.00005346     0.00002050    -0.00034933
N        -0.04312134    -0.04926757     1.31217309     0.00015042    -0.00003428     0.00024601
H         0.93989255    -0.01764577    -0.51800906     0.00017888     0.00009739    -0.00026738
H         0.85676501    -0.16822397     1.83258183    -0.00099976     0.00008549    -0.00009945
H        -0.91876241    -0.06657947     1.81475926    -0.00106510     0.00012036     0.00067432
H        -0.99790090     0.03504122    -0.56971633     0.00043266    -0.00007120     0.00043648
     6
  Step:     4            Position(A)                                  Velocity(au)
C        -0.04171965     0.01964159     0.00598796    -0.00005130     0.00003395    -0.00046776
N        -0.04227147    -0.04945263     1.31377386     0.00015849    -0.00003346     0.00033895
H         0.94079619    -0.01722693    -0.51943455     0.00014904     0.00005720    -0.00025412
H         0.85117386    -0.16786436     1.83200839    -0.00103389     0.00004543    -0.00010307
H        -0.92489679    -0.06605271     1.81867206    -0.00116295     0.00007411     0.00074863
H        -0.99545796     0.03452524    -0.56722178     0.00045669    -0.00011644     0.00047217
     6
  Step:     5            Position(A)                                  Velocity(au)
C        -0.04199244     0.01986312     0.00311214    -0.00004787     0.00004674    -0.00058210
N        -0.04138906    -0.04963324     1.31587783     0.00016210    -0.00003261     0.00042931
H         0.94152154    -0.01702059    -0.52078656     0.00011417     0.00001973    -0.00024072
H         0.84546469    -0.16772747     1.83145525    -0.00104090     0.00000405    -0.00009118
H        -0.93147343    -0.06576947     1.82294176    -0.00122557     0.00003131     0.00080412
H        -0.99290935     0.03376858    -0.56455551     0.00047013    -0.00015889     0.00049829
     6
  Step:     6            Position(A)                                  Velocity(au)
C        -0.04224306     0.02015268    -0.00037724    -0.00004312     0.00005870    -0.00069045
N        -0.04049897    -0.04980925     1.31846829     0.00016099    -0.00003170     0.00051556
H         0.94204461    -0.01701122    -0.52206677     0.00007572    -0.00001482    -0.00022790
H         0.83979164    -0.16782004     1.83101132    -0.00101810    -0.00003844    -0.00006250
H        -0.93829828    -0.06571034     1.82746507    -0.00125194    -0.00000788     0.00084017
H        -0.99031711     0.03278779    -0.56177303     0.00047101    -0.00019795     0.00051332
     6
  Step:     7            Position(A)                                  Velocity(au)
C        -0.04246435     0.02050556    -0.00444437    -0.00003706     0.00006969    -0.00079074
N        -0.03962718    -0.04998012     1.32152025     0.00015505    -0.00003062     0.00059603
H         0.94235024    -0.01718281    -0.52328075     0.00003548    -0.00004639    -0.00021635
H         0.83432233    -0.16814821     1.83077127    -0.00096361    -0.00008190    -0.00001642
H        -0.94517501    -0.06585566     1.83213675    -0.00124222    -0.00004342     0.00085664
H        -0.98775452     0.03160214    -0.55893765     0.00045733    -0.00023316     0.00051592
     6
  Step:     8            Position(A)                                  Velocity(au)
C        -0.04264918     0.02091631    -0.00904228    -0.00002972     0.00007956    -0.00088080
N        -0.03879991    -0.05014483     1.32499972     0.00014435    -0.00002931     0.00066900
H         0.94243341    -0.01751957    -0.52443762    -0.00000460    -0.00007503    -0.00020671
H         0.82923229    -0.16871752     1.83083138    -0.00087686    -0.00012612     0.00004676
H        -0.95191076    -0.06618618     1.83685225    -0.00119767    -0.00007542     0.00085395
H        -0.98530562     0.03023276    -0.55611950     0.00042739    -0.00026420     0.00050505
     6
  Step:     9            Position(A)                                  Velocity(au)
C        -0.04279061     0.02137884    -0.01411276    -0.00002119     0.00008820    -0.00095863
N        -0.03804271    -0.05030184     1.32886371     0.00012915    -0.00002767     0.00073283
H         0.94229973    -0.01800644    -0.52554977    -0.00004256    -0.00010088    -0.00019952
H         0.82469722    -0.16953258     1.83128452    -0.00075899    -0.00017078     0.00012573
H        -0.95832163    -0.06668353     1.84151037    -0.00112071    -0.00010401     0.00083309
H        -0.98306320     0.02870203    -0.55339385     0.00038008    -0.00029088     0.00048011
     6
  Step:    10            Position(A)                                  Velocity(au)
C        -0.04288229     0.02188653    -0.01958724    -0.00001163     0.00009553    -0.00102252
N        -0.03737927    -0.05044921     1.33306088     0.00010995    -0.00002565     0.00078617
H         0.94196530    -0.01862924    -0.52663234    -0.00007648    -0.00012407    -0.00019528
H         0.82088337    -0.17059615     1.83221443    -0.00061311    -0.00021540     0.00021808
H        -0.96423856    -0.06733031     1.84601627    -0.00101490    -0.00012936     0.00079569
H        -0.98112475     0.02703309    -0.55083834     0.00031522    -0.00031309     0.00044111
     6
  Step:    11            Position(A)                                  Velocity(au)
C        -0.04291887     0.02243231    -0.02538852    -0.00000127     0.00010149    -0.00107124
N        -0.03683027    -0.05058474     1.33753306     0.00008746    -0.00002324     0.00082801
H         0.94145631    -0.01937465    -0.52770322    -0.00010466    -0.00014477    -0.00019444
H         0.81793623    -0.17190786     1.83368939    -0.00044439    -0.00025923     0.00032029
H        -0.96951335    -0.06811005     1.85028477    -0.00088493    -0.00015164     0.00074398
H        -0.97958719     0.02524948    -0.54852953     0.00023366    -0.00033083     0.00038878
     6
  Step:    12            Position(A)                                  Velocity(au)
C        -0.04289634     0.02300881    -0.03143326     0.00000959     0.00010605    -0.00110415
N        -0.03641206    -0.05070618     1.34221720     0.00006262    -0.00002044     0.00085786
H         0.94080795    -0.02023016    -0.52878250    -0.00012565    -0.00016314    -0.00019731
H         0.81596921    -0.17346282     1.83575631    -0.00025986    -0.00030137     0.00042797
H        -0.97402435    -0.06900716     1.85424344    -0.00073639    -0.00017102     0.00068074
H        -0.97854093     0.02337474    -0.54653905     0.00013737    -0.00034418     0.00032458
     6
  Step:    13            Position(A)                                  Velocity(au)
C        -0.04281247     0.02360859    -0.03763527     0.00003657     0.00019389    -0.00199003
N        -0.03613570    -0.05081146     1.34704806     0.00006473    -0.00003074     0.00155422
H         0.94006269    -0.02118408    -0.52989166    -0.00024562    -0.00031829    -0.00036211
H         0.81505398    -0.17525052     1.83843622    -0.00012044    -0.00060476     0.00095154
H        -0.97768112    -0.07000697     1.85783524    -0.00102130    -0.00033317     0.00108097
H        -0.97806352     0.02143196    -0.54492940     0.00005217    -0.00062709     0.00044484
     6
  Step:    14            Position(A)                                  Velocity(au)
C        -0.04259285     0.02467020    -0.04839437     0.00002315     0.00010219    -0.00102023
N        -0.03584482    -0.05097177     1.35548525     0.00002157    -0.00001452     0.00080361
H         0.93899538    -0.02293211    -0.53224020    -0.00007202    -0.00016915    -0.00026341
H         0.81494199    -0.17866347     1.84405622     0.00004355    -0.00033920     0.00058169
H        -0.98291863    -0.07180861     1.86363848    -0.00046705    -0.00017110     0.00054626
H        -0.97830600     0.01797153    -0.54304432    -0.00008005    -0.00033649     0.00012542
     6
  Step:    15            Position(A)                                  Velocity(au)
C        -0.04243235     0.02524514    -0.05408111     0.00003356     0.00010189    -0.00099780
N        -0.03580077    -0.05104272     1.35997924    -0.00000522    -0.00001070     0.00079128
H         0.93859877    -0.02391777    -0.53375029    -0.00006593    -0.00018080    -0.00027483
H         0.81572909    -0.18065691     1.84759920     0.00022965    -0.00036767     0.00067357
H        -0.98503258    -0.07280439     1.86646130    -0.00028682    -0.00018230     0.00045805
H        -0.97910713     0.01608104    -0.54258682    -0.00020437    -0.00033470     0.00003714
     6
  Step:    16            Position(A)                                  Velocity(au)
C        -0.04221494     0.02581745    -0.05962886     0.00004327     0.00010136    -0.00097199
N        -0.03590355    -0.05109228     1.36439446    -0.00003029    -0.00000697     0.00077651
H         0.93825303    -0.02496783    -0.53533453    -0.00005417    -0.00019228    -0.00028976
H         0.81752769    -0.18280322     1.85164008     0.00040037    -0.00039339     0.00075749
H        -0.98614796    -0.07386118     1.86879581    -0.00011415    -0.00019306     0.00037395
H        -0.98060703     0.01420306    -0.54262611    -0.00032676    -0.00033234    -0.00005010
     6
  Step:    17            Position(A)                                  Velocity(au)
C        -0.04194537     0.02638597    -0.06502091     0.00005212     0.00010085    -0.00094549
N        -0.03614165    -0.05112111     1.36871893    -0.00005317    -0.00000338     0.00076144
H         0.93798912    -0.02608190    -0.53701160    -0.00003720    -0.00020421    -0.00030845
H         0.82023524    -0.18508457     1.85612483     0.00055190    -0.00041648     0.00083232
H        -0.98631730    -0.07497731     1.87067017     0.00004796    -0.00020409     0.00029613
H        -0.98278481     0.01234057    -0.54315068    -0.00044483    -0.00033013    -0.00013477
     6
  Step:    18            Position(A)                                  Velocity(au)
C        -0.04162915     0.02695094    -0.07025519     0.00006001     0.00010053    -0.00091997
N        -0.03650117    -0.05113022     1.37295229    -0.00007357     0.00000003     0.00074740
H         0.93783499    -0.02726294    -0.53880124    -0.00001546    -0.00021708    -0.00033095
H         0.82373052    -0.18748400     1.86099455     0.00068174    -0.00043690     0.00089719
H        -0.98560894    -0.07615494     1.87212401     0.00019762    -0.00021596     0.00022591
H        -0.98560645     0.01049268    -0.54414084    -0.00055664    -0.00032848    -0.00021587
     6
  Step:    19            Position(A)                                  Velocity(au)
C        -0.04127235     0.02751348    -0.07533870     0.00006681     0.00010046    -0.00089610
N        -0.03696674    -0.05112077     1.37710127    -0.00009123     0.00000324     0.00073489
H         0.93781568    -0.02851652    -0.54072329     0.00001059    -0.00023119    -0.00035705
H         0.82788117    -0.18998462     1.86618717     0.00078798    -0.00045440     0.00095114
H        -0.98410094    -0.07739936     1.87320386     0.00033336    -0.00022907     0.00016412
H        -0.98902771     0.00865654    -0.54557169    -0.00066031    -0.00032741    -0.00029258
     6
  Step:    20            Position(A)                                  Velocity(au)
C        -0.04088157     0.02807498    -0.08028188     0.00007240     0.00010060    -0.00087380
N        -0.03752196    -0.05109401     1.38117519    -0.00010593     0.00000623     0.00072380
H         0.93795346    -0.02984976    -0.54279631     0.00004047    -0.00024665    -0.00038630
H         0.83254746    -0.19256837     1.87163711     0.00086905    -0.00046845     0.00099304
H        -0.98187888    -0.07871802     1.87396042     0.00045360    -0.00024365     0.00011139
H        -0.99299486     0.00682925    -0.54741461    -0.00075383    -0.00032666    -0.00036415
     6
  Step:    21            Position(A)                                  Velocity(au)
C        -0.04046405     0.02863671    -0.08509464     0.00007662     0.00010090    -0.00085260
N        -0.03814939    -0.05105120     1.38518252    -0.00011742     0.00000901     0.00071366
H         0.93826756    -0.03127041    -0.54503632     0.00007359    -0.00026346    -0.00041806
H         0.83758410    -0.19521481     1.87727446     0.00092368    -0.00047844     0.00102179
H        -0.97903647    -0.08011968     1.87444755     0.00055645    -0.00025983     0.00006835
H        -0.99744419     0.00500933    -0.54963737    -0.00083505    -0.00032586    -0.00042972
     6
  Step:    22            Position(A)                                  Velocity(au)
C        -0.04002767     0.02919952    -0.08978418     0.00007935     0.00010126    -0.00083193
N        -0.03883056    -0.05099358     1.38912898    -0.00012548     0.00001157     0.00070387
H         0.93877360    -0.03278610    -0.54745562     0.00010918    -0.00028152    -0.00045154
H         0.84284193    -0.19790058     1.88302501     0.00095113    -0.00048378     0.00103653
H        -0.97567715    -0.08161379     1.87472217     0.00063982    -0.00027766     0.00003566
H        -1.00230156     0.00319755    -0.55220392    -0.00090192    -0.00032453    -0.00048848
     6
  Step:    23            Position(A)                                  Velocity(au)
C        -0.03958085     0.02976379    -0.09435442     0.00008051     0.00010160    -0.00081130
N        -0.03954605    -0.05092240     1.39301686    -0.00012996     0.00001391     0.00069387
H         0.93948273    -0.03440383    -0.55006212     0.00014634    -0.00030068    -0.00048588
H         0.84817060    -0.20059947     1.88881147     0.00095139    -0.00048402     0.00103687
H        -0.97191505    -0.08321012     1.87484443     0.00070164    -0.00029719     0.00001395
H        -1.00748298     0.00139723    -0.55507437    -0.00095273    -0.00032223    -0.00053969
     6
  Step:    24            Position(A)                                  Velocity(au)
C        -0.03913234     0.03032944    -0.09880643     0.00008007     0.00010186    -0.00079034
N        -0.04027583    -0.05083885     1.39684531    -0.00013078     0.00001604     0.00068321
H         0.94040095    -0.03612986    -0.55285898     0.00018405    -0.00032080    -0.00052023
H         0.85342208    -0.20328319     1.89455572     0.00092527    -0.00047888     0.00102295
H        -0.96787436    -0.08491871     1.87487730     0.00074023    -0.00031846     0.00000372
H        -1.01289658    -0.00038593    -0.55820564    -0.00098626    -0.00031861    -0.00058282
     6
  Step:    25            Position(A)                                  Velocity(au)
C        -0.03869088     0.03089599    -0.10313923     0.00007806     0.00010198    -0.00076886
N        -0.04099972    -0.05074407     1.40061089    -0.00012797     0.00001797     0.00067158
H         0.94152849    -0.03796961    -0.55584464     0.00022124    -0.00034176    -0.00055379
H         0.85845515    -0.20592235     1.90018175     0.00087445    -0.00046833     0.00099550
H        -0.96368720    -0.08674983     1.87488576     0.00075446    -0.00034154     0.00000522
H        -1.01844543    -0.00214419    -0.56155256    -0.00100194    -0.00031336    -0.00061763
     6
  Step:    26            Position(A)                                  Velocity(au)
C        -0.03826488     0.03146270    -0.10735063     0.00007457     0.00010193    -0.00074680
N        -0.04169798    -0.05063910     1.40430842    -0.00012168     0.00001973     0.00065879
H         0.94285959    -0.03992778    -0.55901308     0.00025683    -0.00036346    -0.00058580
H         0.86313966    -0.20848767     1.90561845     0.00080134    -0.00045251     0.00095571
H        -0.95949017    -0.08871415     1.87493530     0.00074394    -0.00036652     0.00001839
H        -1.02403096    -0.00386821    -0.56506923    -0.00099984    -0.00030626    -0.00064413
     6
  Step:    27            Position(A)                                  Velocity(au)
C        -0.03786219     0.03202864    -0.11143801     0.00006975     0.00010169    -0.00072419
N        -0.04235187    -0.05052483     1.40793163    -0.00011214     0.00002134     0.00064476
H         0.94438251    -0.04200849    -0.56235432     0.00028978    -0.00038582    -0.00061564
H         0.86735998    -0.21095090     1.91080201     0.00070889    -0.00043174     0.00090516
H        -0.95542018    -0.09082278     1.87509016     0.00070910    -0.00039352     0.00004283
H        -1.02955608    -0.00554750    -0.56871042    -0.00098056    -0.00029718    -0.00066260
     6
  Step:    28            Position(A)                                  Velocity(au)
C        -0.03748977     0.03259280    -0.11539886     0.00006375     0.00010127    -0.00070115
N        -0.04294420    -0.05040199     1.41147384    -0.00009969     0.00002283     0.00062951
H         0.94607996    -0.04421555    -0.56585496     0.00031914    -0.00040884    -0.00064281
H         0.87101780    -0.21328571     1.91567779     0.00060048    -0.00040643     0.00084569
H        -0.95160972    -0.09308742     1.87541127     0.00065125    -0.00042265     0.00007771
H        -1.03492825    -0.00717083    -0.57243298    -0.00094524    -0.00028602    -0.00067358
     6
  Step:    29            Position(A)                                  Velocity(au)
C        -0.03715361     0.03315418    -0.11923118     0.00005679     0.00010066    -0.00067783
N        -0.04345987    -0.05027111     1.41492853    -0.00008475     0.00002424     0.00061315
H         0.94792967    -0.04655262    -0.56949895     0.00034412    -0.00043253    -0.00066690
H         0.87403413    -0.21546829     1.92020170     0.00047971    -0.00037711     0.00077932
H        -0.94818174    -0.09552039     1.87595393     0.00057259    -0.00045404     0.00012183
H        -1.04006216    -0.00872652    -0.57619709    -0.00089540    -0.00027274    -0.00067778
     6
  Step:    30            Position(A)                                  Velocity(au)
C        -0.03685853     0.03371180    -0.12293365     0.00004906     0.00009990    -0.00065436
N        -0.04388627    -0.05013252     1.41828966    -0.00006780     0.00002562     0.00059579
H         0.94990526    -0.04902358    -0.57326825     0.00036408    -0.00045697    -0.00068765
H         0.87635027    -0.21747770     1.92434084     0.00035026    -0.00034431     0.00070811
H        -0.94524471    -0.09813463     1.87676554     0.00047614    -0.00048784     0.00017359
H        -1.04488165    -0.01020265    -0.57996721    -0.00083283    -0.00025732    -0.00067605
     6
  Step:    31            Position(A)                                  Velocity(au)
C        -0.03660824     0.03426480    -0.12650567     0.00004076     0.00009900    -0.00063086
N        -0.04421363    -0.04998634     1.42155197    -0.00004938     0.00002699     0.00057759
H         0.95197716    -0.05163280    -0.57714355     0.00037855    -0.00048230    -0.00070491
H         0.87792796    -0.21929599     1.92807374     0.00021575    -0.00030855     0.00063409
H        -0.94288847    -0.10094373     1.87788371     0.00036554    -0.00052416     0.00023109
H        -1.04932080    -0.01158713    -0.58371274    -0.00075944    -0.00023971    -0.00066934
     6
  Step:    32            Position(A)                                  Velocity(au)
C        -0.03640536     0.03481242    -0.12994712     0.00003209     0.00009798    -0.00060737
N        -0.04443519    -0.04983251     1.42471094    -0.00003001     0.00002839     0.00055866
H         0.95411374    -0.05438551    -0.58110502     0.00038727    -0.00050873    -0.00071867
H         0.87874884    -0.22090793     1.93139018     0.00007966    -0.00027028     0.00055923
H        -0.94118083    -0.10396191     1.87933461     0.00024497    -0.00056314     0.00029218
H        -1.05332462    -0.01286761    -0.58740846    -0.00067722    -0.00021986    -0.00065865
     6
  Step:    33            Position(A)                                  Velocity(au)
C        -0.03625147     0.03535399    -0.13325776     0.00002322     0.00009685    -0.00058383
N        -0.04454730    -0.04967076     1.42776256    -0.00001028     0.00002985     0.00053906
H         0.95628238    -0.05728826    -0.58513295     0.00039017    -0.00053654    -0.00072900
H         0.87881351    -0.22230063     1.93429069    -0.00005474    -0.00022983     0.00048541
H        -0.94016516    -0.10720406     1.88113187     0.00011889    -0.00060490     0.00035456
H        -1.05684941    -0.01403127    -0.59103492    -0.00058819    -0.00019762    -0.00064506
     6
  Step:    34            Position(A)                                  Velocity(au)
C        -0.03614728     0.03588895    -0.13643687     0.00001428     0.00009563    -0.00056008
N        -0.04454942    -0.04950068     1.43070309     0.00000930     0.00003140     0.00051881
H         0.95845079    -0.06034955    -0.58920846     0.00038743    -0.00056616    -0.00073613
H         0.87814040    -0.22346269     1.93678597    -0.00018435    -0.00018737     0.00041441
H        -0.93985923    -0.11068589     1.88327585    -0.00000810    -0.00064965     0.00041585
H        -1.05986280    -0.01506429    -0.59457880    -0.00049435    -0.00017275    -0.00062970
     6
  Step:    35            Position(A)                                  Velocity(au)
C        -0.03609277     0.03641681    -0.13948262     0.00000539     0.00009434    -0.00053588
N        -0.04444395    -0.04932173     1.43352869     0.00002820     0.00003306     0.00049785
H         0.96058838    -0.06358066    -0.59331443     0.00037954    -0.00059823    -0.00074049
H         0.87676459    -0.22438312     1.93889647    -0.00030631    -0.00014280     0.00034792
H        -0.94025520    -0.11442433     1.88575364    -0.00013155    -0.00069766     0.00047368
H        -1.06234373    -0.01595121    -0.59803348    -0.00039778    -0.00014483    -0.00061388
     6
  Step:    36            Position(A)                                  Velocity(au)
C        -0.03608739     0.03693723    -0.14239154    -0.00000338     0.00009299    -0.00051070
N        -0.04423607    -0.04913335     1.43623520     0.00004596     0.00003482     0.00047596
H         0.96266828    -0.06699709    -0.59743685     0.00036745    -0.00063371    -0.00074288
H         0.87473672    -0.22504948     1.94065208    -0.00041789    -0.00009558     0.00028766
H        -0.94132098    -0.11843832     1.88853940    -0.00024732    -0.00074943     0.00052583
H        -1.06428291    -0.01667366    -0.60140021    -0.00030070    -0.00011318    -0.00059925
     6
  Step:    37            Position(A)                                  Velocity(au)
C        -0.03613029     0.03744988    -0.14515625    -0.00001200     0.00009159    -0.00048338
N        -0.04393334    -0.04893494     1.43881641     0.00006220     0.00003668     0.00045245
H         0.96467057    -0.07062090    -0.60156752     0.00035298    -0.00067412    -0.00074490
H         0.87212205    -0.22544502     1.94209228    -0.00051651    -0.00004452     0.00023543
H        -0.94300283    -0.12275021     1.89159543    -0.00035188    -0.00080575     0.00057031
H        -1.06568435    -0.01720854    -0.60469085    -0.00020595    -0.00007669    -0.00058831
     6
  Step:    38            Position(A)                                  Velocity(au)
C        -0.03622062     0.03795449    -0.14776037    -0.00002047     0.00009012    -0.00045112
N        -0.04354527    -0.04872599     1.44126052     0.00007659     0.00003862     0.00042547
H         0.96658881    -0.07448446    -0.60571034     0.00033994    -0.00072163    -0.00075022
H         0.86899986    -0.22554392     1.94326697    -0.00059963     0.00001249     0.00019326
H        -0.94522923    -0.12738768     1.89487378    -0.00044248    -0.00086740     0.00060560
H        -1.06657040    -0.01752540    -0.60793447    -0.00011819    -0.00003400    -0.00058565
     6
  Step:    39            Position(A)                                  Velocity(au)
C        -0.03635761     0.03845056    -0.15016551    -0.00002864     0.00008851    -0.00040748
N        -0.04308289    -0.04850611     1.44354092     0.00008879     0.00004059     0.00039064
H         0.96844525    -0.07863393    -0.60989807     0.00033602    -0.00077692    -0.00076767
H         0.86546374    -0.22530631     1.94423831    -0.00066446     0.00007628     0.00016324
H        -0.94791622    -0.13238192     1.89832013    -0.00051735    -0.00093198     0.00063173
H        -1.06699677    -0.01758612    -0.61119397    -0.00004684     0.00001385    -0.00060023
     6
  Step:    40            Position(A)                                  Velocity(au)
C        -0.03653854     0.03893699    -0.15228389    -0.00003551     0.00008662    -0.00034481
N        -0.04255958    -0.04827534     1.44559709     0.00009801     0.00004254     0.00034267
H         0.97031903    -0.08310916    -0.61423228     0.00034863    -0.00083001    -0.00080915
H         0.86162358    -0.22469715     1.94507906    -0.00070858     0.00013647     0.00014485
H        -0.95097235    -0.13773364     1.90188670    -0.00057449    -0.00098471     0.00065190
H        -1.06709037    -0.01737162    -0.61459764    -0.00000440     0.00005487    -0.00064076
     6
  Step:    41            Position(A)                                  Velocity(au)
C        -0.03675166     0.03941188    -0.15399210    -0.00004441     0.00009421    -0.00029678
N        -0.04199523    -0.04803401     1.44734381     0.00011522     0.00004959     0.00031634
H         0.97231429    -0.08784516    -0.61887777     0.00041416    -0.00096330    -0.00097346
H         0.85760015    -0.22379184     1.94584585    -0.00081633     0.00019439     0.00014942
H        -0.95429179    -0.14330995     1.90555469    -0.00068126    -0.00112367     0.00074608
H        -1.06704563    -0.01697717    -0.61830489     0.00001139     0.00008080    -0.00078156
     6
  Step:    42            Position(A)                                  Velocity(au)
C        -0.03699648     0.03992917    -0.15561126    -0.00004438     0.00009236    -0.00028873
N        -0.04135474    -0.04775208     1.44906488     0.00011469     0.00005210     0.00030535
H         0.97440191    -0.09307605    -0.62419733     0.00033453    -0.00093409    -0.00093825
H         0.85301400    -0.22283871     1.94658259    -0.00082700     0.00015982     0.00012408
H        -0.95809278    -0.14946517     1.90972197    -0.00067819    -0.00110798     0.00074658
H        -1.06672927    -0.01662631    -0.62251196     0.00010560     0.00005767    -0.00073514
     6
  Step:    43            Position(A)                                  Velocity(au)
C        -0.03724393     0.04043639    -0.15719501    -0.00004496     0.00009057    -0.00028225
N        -0.04072290    -0.04745602     1.45073109     0.00011194     0.00005470     0.00029538
H         0.97602527    -0.09820717    -0.62928589     0.00024908    -0.00092265    -0.00089415
H         0.84842608    -0.22201893     1.94722224    -0.00081705     0.00014109     0.00011359
H        -0.96181505    -0.15560099     1.91383659    -0.00065364    -0.00111068     0.00072947
H        -1.06587417    -0.01633747    -0.62645990     0.00020172     0.00005295    -0.00069027
     6
  Step:    44            Position(A)                                  Velocity(au)
C        -0.03749509     0.04093366    -0.15874171    -0.00004550     0.00008880    -0.00027527
N        -0.04011319    -0.04714546     1.45234091     0.00010670     0.00005736     0.00028500
H         0.97716438    -0.10330910    -0.63411428     0.00016052    -0.00092099    -0.00084589
H         0.84395214    -0.22127393     1.94784243    -0.00078655     0.00012972     0.00011630
H        -0.96534228    -0.16178360     1.91781246    -0.00060890    -0.00112192     0.00069821
H        -1.06449207    -0.01603910    -0.63016773     0.00029436     0.00005803    -0.00064889
     6