     6
  Step:     0            Position(A)                                  Velocity(au)
C        -0.04841149     0.00720403     0.03919076     0.00002619     0.00002893     0.00005271
N        -0.03676061    -0.06775401     1.27854747    -0.00015998    -0.00003482    -0.00004959
H         0.93318545     0.04539544    -0.48459304     0.00046547    -0.00028809    -0.00025759
H         0.77485657    -0.02540384     1.82818990     0.00059528     0.00046589     0.00102519
H        -0.90354579     0.03384482     1.87495442     0.00149333    -0.00018048    -0.00049209
H        -0.92972150     0.13207637    -0.56065448    -0.00064301     0.00014187    -0.00021445
     6
  Step:     1            Position(A)                                  Velocity(au)
C        -0.04822409     0.00735914     0.03901655     0.00004199     0.00002793    -0.00011652
N        -0.03770776    -0.06798949     1.27866688    -0.00018381    -0.00005137     0.00009306
H         0.93580232     0.04395613    -0.48599598     0.00048808    -0.00023862    -0.00025264
H         0.77891080    -0.02266279     1.83414996     0.00086891     0.00053556     0.00114102
H        -0.89529046     0.03296820     1.87206262     0.00150844    -0.00013820    -0.00055579
H        -0.93371899     0.13307554    -0.56190315    -0.00081147     0.00022241    -0.00023733
     6
  Step:     2            Position(A)                                  Velocity(au)
C        -0.04795215     0.00750952     0.03791616     0.00005694     0.00002714    -0.00028493
N        -0.03877132    -0.06831596     1.27956548    -0.00020213    -0.00006802     0.00023441
H         0.93852451     0.04278517    -0.48735670     0.00050355    -0.00018977    -0.00024232
H         0.78436155    -0.01954534     1.84067146     0.00110296     0.00060301     0.00122867
H        -0.88704499     0.03233305     1.86887465     0.00148726    -0.00009181    -0.00059836
H        -0.93859819     0.13450932    -0.56325063    -0.00096330     0.00030050    -0.00025011
     6
  Step:     3            Position(A)                                  Velocity(au)
C        -0.04760109     0.00765606     0.03589884     0.00007070     0.00002644    -0.00045022
N        -0.03991951    -0.06873377     1.28123177    -0.00021423    -0.00008461     0.00037239
H         0.94131217     0.04187970    -0.48864744     0.00051116    -0.00014126    -0.00022712
H         0.79097947    -0.01606458     1.84759411     0.00129237     0.00066723     0.00128542
H        -0.87901681     0.03196357     1.86551531     0.00142560    -0.00004071    -0.00061604
H        -0.94425951     0.13636361    -0.56463988    -0.00109454     0.00037548    -0.00025220
     6
  Step:     4            Position(A)                                  Velocity(au)
C        -0.04717800     0.00779901     0.03298629     0.00008295     0.00002572    -0.00060961
N        -0.04111713    -0.06924240     1.28364307    -0.00021952    -0.00010091     0.00050454
H         0.94412171     0.04123836    -0.48984364     0.00051021    -0.00009296    -0.00020772
H         0.79851288    -0.01223924     1.85474667     0.00143333     0.00072683     0.00130962
H        -0.87143482     0.03188730     1.86212911     0.00131999     0.00001552    -0.00060545
H        -0.95058331     0.13862083    -0.56601217    -0.00120136     0.00044643    -0.00024355
     6
  Step:     5            Position(A)                                  Velocity(au)
C        -0.04669165     0.00793803     0.02921519     0.00009336     0.00002488    -0.00075983
N        -0.04232634    -0.06984009     1.28676346    -0.00021762    -0.00011661     0.00062804
H         0.94690607     0.04086051    -0.49092485     0.00050013    -0.00004492    -0.00018501
H         0.80669429    -0.00809571     1.86195254     0.00152334     0.00078007     0.00130073
H        -0.86454465     0.03213371     1.85887724     0.00116849     0.00007688    -0.00056421
H        -0.95743099     0.14125822    -0.56731008    -0.00128028     0.00051206    -0.00022471
     6
  Step:     6            Position(A)                                  Velocity(au)
C        -0.04615249     0.00807227     0.02463962     0.00010162     0.00002384    -0.00089727
N        -0.04350765    -0.07052336     1.29054200    -0.00020840    -0.00013134     0.00073984
H         0.94961553     0.04074494    -0.49187601     0.00048071     0.00000252    -0.00016016
H         0.81524662    -0.00367022     1.86903507     0.00156139     0.00082493     0.00125944
H        -0.85859907     0.03273177     1.85593128     0.00097163     0.00014282    -0.00049156
H        -0.96464702     0.14424581    -0.56848056    -0.00132857     0.00057080    -0.00019678
     6
  Step:     7            Position(A)                                  Velocity(au)
C        -0.04557247     0.00820059     0.01933302     0.00010749     0.00002257    -0.00101820
N        -0.04462159    -0.07128657     1.29491169    -0.00019214    -0.00014464     0.00083691
H         0.95220037     0.04088830    -0.49268873     0.00045236     0.00004876    -0.00013452
H         0.82389074     0.00098969     1.87582353     0.00154824     0.00085931     0.00118775
H        -0.85384349     0.03370667     1.85346339     0.00073327     0.00021217    -0.00038900
H        -0.97206331     0.14754478    -0.56947736    -0.00134459     0.00062089    -0.00016124
     6
  Step:     8            Position(A)                                  Velocity(au)
C        -0.04496479     0.00832164     0.01338862     0.00011080     0.00002105    -0.00111920
N        -0.04563080    -0.07212162     1.29978974    -0.00016956    -0.00015608     0.00091661
H         0.95461403     0.04128372    -0.49336240     0.00041619     0.00009300    -0.00010962
H         0.83235451     0.00582502     1.88215951     0.00148680     0.00088141     0.00108902
H        -0.85049648     0.03507621     1.85163284     0.00046112     0.00028313    -0.00026075
H        -0.97950458     0.15110656    -0.57026220    -0.00132816     0.00066068    -0.00011977
     6
  Step:     9            Position(A)                                  Velocity(au)
C        -0.04434341     0.00843406     0.00691779     0.00011151     0.00001929    -0.00119772
N        -0.04650246    -0.07301796     1.30507964    -0.00014182    -0.00016528     0.00097717
H         0.95681709     0.04191991    -0.49390471     0.00037405     0.00013441    -0.00008698
H         0.84038377     0.01076707     1.88790401     0.00138238     0.00089012     0.00096811
H        -0.84872831     0.03684737     1.85057092     0.00016653     0.00035348    -0.00011362
H        -0.98679646     0.15487363    -0.57080593    -0.00128104     0.00068901    -0.00007443
     6
  Step:    10            Position(A)                                  Velocity(au)
C        -0.04372243     0.00853655     0.00004505     0.00010976     0.00001733    -0.00125278
N        -0.04721073    -0.07396300     1.31067615    -0.00011048    -0.00017205     0.00101818
H         0.95878122     0.04278110    -0.49433147     0.00032843     0.00017232    -0.00006799
H         0.84775532     0.01574163     1.89294501     0.00124273     0.00088548     0.00083113
H        -0.84864125     0.03901423     1.85036698    -0.00013657     0.00042096     0.00004360
H        -0.99377640     0.15878262    -0.57109137    -0.00120718     0.00070561    -0.00002752
     6
  Step:    11            Position(A)                                  Velocity(au)
C        -0.04311521     0.00862797    -0.00710050     0.00010583     0.00001521    -0.00128545
N        -0.04773874    -0.07494311     1.31647281    -0.00007734    -0.00017642     0.00104099
H         0.96049211     0.04384807    -0.49466550     0.00028212     0.00020642    -0.00005369
H         0.85428962     0.02067544     1.89720418     0.00107746     0.00086893     0.00068500
H        -0.85025648     0.04155780     1.85105876    -0.00043359     0.00048370     0.00020146
H        -1.00030450     0.16276927    -0.57111386    -0.00111232     0.00071138     0.00001880
     6
  Step:    12            Position(A)                                  Velocity(au)
C        -0.04253344     0.00870740    -0.01439641     0.00010018     0.00001298    -0.00129899
N        -0.04807964    -0.07594500     1.32237120    -0.00004414    -0.00017873     0.00104868
H         0.96195069     0.04510015    -0.49493465     0.00023784     0.00023692    -0.00004473
H         0.85986014     0.02550373     1.90064068     0.00089689     0.00084319     0.00053655
H        -0.85351243     0.04444840     1.85263030    -0.00071167     0.00054065     0.00035138
H        -1.00627290     0.16677463    -0.57088019    -0.00100338     0.00070832     0.00006279
     6
  Step:    13            Position(A)                                  Velocity(au)
C        -0.04198633     0.00877418    -0.02173867     0.00009330     0.00001068    -0.00129825
N        -0.04823615    -0.07695717     1.32829030    -0.00001233    -0.00017950     0.00104557
H         0.96317226     0.04651790    -0.49516954     0.00019781     0.00026451    -0.00004132
H         0.86439658     0.03017726     1.90325048     0.00071050     0.00081174     0.00039156
H        -0.85827628     0.04765033     1.85501839    -0.00096154     0.00059170     0.00048687
H        -1.01161153     0.17075126    -0.57040623    -0.00088725     0.00069923     0.00010335
     6
  Step:    14            Position(A)                                  Velocity(au)
C        -0.04148026     0.00882795    -0.02905049     0.00008569     0.00000835    -0.00128845
N        -0.04821882    -0.07797112     1.33417310     0.00001706    -0.00017933     0.00103614
H         0.96418354     0.04808580    -0.49540111     0.00016354     0.00029019    -0.00004333
H         0.86787999     0.03466630     1.90506048     0.00052573     0.00077800     0.00025412
H        -0.86436582     0.05112728     1.85812585    -0.00117786     0.00063744     0.00060397
H        -1.01628774     0.17466721    -0.56971356    -0.00076961     0.00068696     0.00013996
     6
  Step:    15            Position(A)                                  Velocity(au)
C        -0.04101901     0.00886848    -0.03628388     0.00007767     0.00000600    -0.00127375
N        -0.04804351    -0.07898165     1.33998717     0.00004344    -0.00017870     0.00102393
H         0.96501848     0.04979381    -0.49565872     0.00013575     0.00031496    -0.00005041
H         0.87033146     0.03896007     1.90611919     0.00034748     0.00074455     0.00012653
H        -0.87157301     0.05484631     1.86183649    -0.00135813     0.00067853     0.00070063
H        -1.02029960     0.17850627    -0.56882621    -0.00065426     0.00067374     0.00017248
     6
  Step:    16            Position(A)                                  Velocity(au)
C        -0.04060443     0.00889560    -0.04341364     0.00006944     0.00000361    -0.00125647
N        -0.04772901    -0.07998615     1.34571918     0.00006643    -0.00017783     0.00101090
H         0.96571434     0.05163734    -0.49596949     0.00011465     0.00033952    -0.00006219
H         0.87179831     0.04306203     1.90648723     0.00017874     0.00071276     0.00000991
H        -0.87968049     0.05877860     1.86602639    -0.00150090     0.00071522     0.00077581
H        -1.02366535     0.18226448    -0.56776862    -0.00054312     0.00066079     0.00020085
     6
  Step:    17            Position(A)                                  Velocity(au)
C        -0.04023736     0.00890907    -0.05042744     0.00009320     0.00000176    -0.00188821
N        -0.04729568    -0.08098343     1.35136644     0.00013095    -0.00026977     0.00152246
H         0.96630905     0.05361569    -0.49635880     0.00015278     0.00055582    -0.00011958
H         0.87234347     0.04698330     1.90623073     0.00003290     0.00104240    -0.00014507
H        -0.88846800     0.06289718     1.87056942    -0.00244906     0.00114018     0.00126479
H        -1.02641331     0.18594453    -0.56656531    -0.00066689     0.00098959     0.00034321
     6
  Step:    18            Position(A)                                  Velocity(au)
C        -0.03974020     0.00890495    -0.06062973     0.00005316    -0.00000218    -0.00110803
N        -0.04652084    -0.08245584     1.35962408     0.00009031    -0.00016164     0.00090090
H         0.96735729     0.05669065    -0.49739038     0.00014185     0.00034302    -0.00015676
H         0.87214030     0.05265160     1.90519638    -0.00006120     0.00062163    -0.00013672
H        -0.90235212     0.06918219     1.87780365    -0.00156549     0.00069517     0.00082130
H        -1.03006599     0.19142682    -0.56491353    -0.00040372     0.00061245     0.00015642
     6
  Step:    19            Position(A)                                  Velocity(au)
C        -0.03946706     0.00888538    -0.06678578     0.00004396    -0.00000478    -0.00107927
N        -0.04597931    -0.08335873     1.36464216     0.00010034    -0.00015915     0.00088250
H         0.96813604     0.05869070    -0.49832742     0.00013709     0.00036776    -0.00017740
H         0.87141377     0.05606524     1.90419121    -0.00018910     0.00059285    -0.00021414
H        -0.91120892     0.07314773     1.88243581    -0.00156487     0.00071145     0.00081560
H        -1.03204143     0.19482786    -0.56398062    -0.00030131     0.00059653     0.00017307
     6
  Step:    20            Position(A)                                  Velocity(au)
C        -0.03924570     0.00885113    -0.07277021     0.00003497    -0.00000743    -0.00105152
N        -0.04539214    -0.08424603     1.36955113     0.00010702    -0.00015678     0.00086570
H         0.96889933     0.06082744    -0.49938593     0.00013663     0.00039325    -0.00020051
H         0.87001312     0.05932042     1.90278752    -0.00030115     0.00056783    -0.00027919
H        -0.91995500     0.07718514     1.88697815    -0.00153397     0.00072384     0.00079366
H        -1.03345531     0.19813710    -0.56296668    -0.00020541     0.00058231     0.00018588
     6
  Step:    21            Position(A)                                  Velocity(au)
C        -0.03907451     0.00880195    -0.07858983     0.00002621    -0.00001013    -0.00102316
N        -0.04477793    -0.08511866     1.37436031     0.00011030    -0.00015432     0.00084899
H         0.96966980     0.06310518    -0.50057833     0.00013967     0.00041899    -0.00022538
H         0.86803320     0.06243952     1.90105708    -0.00039556     0.00054585    -0.00033103
H        -0.92842878     0.08127338     1.89134523    -0.00147317     0.00073153     0.00075612
H        -1.03434729     0.20136467    -0.56189403    -0.00011611     0.00056889     0.00019435
     6
  Step:    22            Position(A)                                  Velocity(au)
C        -0.03895181     0.00873752    -0.08424248     0.00001775    -0.00001288    -0.00099324
N        -0.04415534    -0.08597637     1.37907058     0.00011023    -0.00015166     0.00083138
H         0.97046543     0.06552546    -0.50191307     0.00014544     0.00044461    -0.00025131
H         0.86557790     0.06544083     1.89907577    -0.00047054     0.00052658    -0.00036888
H        -0.93647311     0.08538746     1.89545627    -0.00138433     0.00073417     0.00070435
H        -1.03475717     0.20451580    -0.56078745    -0.00003390     0.00055574     0.00019813
     6
  Step:    23            Position(A)                                  Velocity(au)
C        -0.03887556     0.00865757    -0.08972071     0.00000969    -0.00001568    -0.00096138
N        -0.04354264    -0.08681829     1.38367733     0.00010693    -0.00014878     0.00081234
H         0.97129975     0.06808776    -0.50339466     0.00015320     0.00046985    -0.00027763
H         0.86276006     0.06834069     1.89692319    -0.00052464     0.00050994    -0.00039220
H        -0.94394252     0.08950095     1.89923871    -0.00127052     0.00073190     0.00064031
H        -1.03472717     0.20759273    -0.55967370     0.00004053     0.00054265     0.00019693
     6
  Step:    24            Position(A)                                  Velocity(au)
C        -0.03884318     0.00856184    -0.09501495     0.00000214    -0.00001851    -0.00092763
N        -0.04295720    -0.08764347     1.38817295     0.00010064    -0.00014571     0.00079168
H         0.97218206     0.07079026    -0.50502401     0.00016224     0.00049465    -0.00030378
H         0.85969920     0.07115484     1.89468109    -0.00055703     0.00049602    -0.00040087
H        -0.95070951     0.09358854     1.90263112    -0.00113571     0.00072526     0.00056635
H        -1.03430300     0.21059633    -0.55858087     0.00010650     0.00052958     0.00019062
     6
  Step:    25            Position(A)                                  Velocity(au)
C        -0.03885156     0.00845009    -0.10011573    -0.00000481    -0.00002139    -0.00089228
N        -0.04241491    -0.08845112     1.39254882     0.00009168    -0.00014253     0.00076946
H         0.97311775     0.07363074    -0.50679876     0.00017191     0.00051905    -0.00032923
H         0.85651797     0.07389905     1.89243110    -0.00056759     0.00048488    -0.00039516
H        -0.95666924     0.09762815     1.90558519    -0.00098439     0.00071507     0.00048498
H        -1.03353376     0.21352717    -0.55753767     0.00016345     0.00051660     0.00017917
     6
  Step:    26            Position(A)                                  Velocity(au)
C        -0.03889712     0.00832212    -0.10501508    -0.00001110    -0.00002430    -0.00085574
N        -0.04192974    -0.08924090     1.39679659     0.00008043    -0.00013934     0.00074589
H         0.97410867     0.07660742    -0.50871378     0.00018165     0.00054325    -0.00035356
H         0.85333801     0.07658914     1.89025236    -0.00055691     0.00047655    -0.00037577
H        -0.96174202     0.10160261     1.90806648    -0.00082122     0.00070238     0.00039871
H        -1.03247119     0.21638605    -0.55657288     0.00021101     0.00050381     0.00016261
     6
  Step:    27            Position(A)                                  Velocity(au)
C        -0.03897596     0.00817771    -0.10970727    -0.00001668    -0.00002726    -0.00081848
N        -0.04151338    -0.09001296     1.40090903     0.00006733    -0.00013624     0.00072122
H         0.97515374     0.07971969    -0.51076162     0.00019101     0.00056756    -0.00037643
H         0.85027585     0.07924040     1.88821929    -0.00052628     0.00047086    -0.00034372
H        -0.96587384     0.10550076     1.91005413    -0.00065068     0.00068838     0.00030987
H        -1.03116862     0.21917411    -0.55571501     0.00024905     0.00049128     0.00014103
     6
  Step:    28            Position(A)                                  Velocity(au)
C        -0.03908407     0.00801660    -0.11418893    -0.00002155    -0.00003026    -0.00078089
N        -0.04117506    -0.09076794     1.40488029     0.00005282    -0.00013331     0.00069572
H         0.97624963     0.08296887    -0.51293295     0.00019969     0.00059242    -0.00039755
H         0.84743923     0.08186670     1.88639985    -0.00047757     0.00046744    -0.00030027
H        -0.96903515     0.10931822     1.91153964    -0.00047694     0.00067432     0.00022050
H        -1.02967973     0.22189254    -0.55499212     0.00027761     0.00047897     0.00011448
     6
  Step:    29            Position(A)                                  Velocity(au)
C        -0.03921752     0.00783853    -0.11845869    -0.00002577    -0.00003333    -0.00074326
N        -0.04092139    -0.09150693     1.40870594     0.00003738    -0.00013061     0.00066960
H         0.97739171     0.08635894    -0.51521691     0.00020758     0.00061840    -0.00041667
H         0.84492376     0.08447899     1.88485419    -0.00041317     0.00046561    -0.00024689
H        -0.97121893     0.11305791     1.91252531    -0.00030375     0.00066158     0.00013234
H        -1.02805746     0.22454188    -0.55443208     0.00029691     0.00046665     0.00008292
     6
  Step:    30            Position(A)                                  Velocity(au)
C        -0.03937279     0.00764313    -0.12251658    -0.00002943    -0.00003648    -0.00070573
N        -0.04075620    -0.09223134     1.41238266     0.00002151    -0.00012819     0.00064300
H         0.97857536     0.08989752    -0.51760145     0.00021482     0.00064626    -0.00043363
H         0.84280996     0.08708345     1.88363366    -0.00033595     0.00046428    -0.00018513
H        -0.97243842     0.11673071     1.91302244    -0.00013447     0.00065164     0.00004681
H        -1.02635311     0.22712103    -0.55406312     0.00030730     0.00045391     0.00004616
     6
  Step:    31            Position(A)                                  Velocity(au)
C        -0.03954710     0.00742997    -0.12636299    -0.00003270    -0.00003972    -0.00066819
N        -0.04068044    -0.09294270     1.41590762     0.00000574    -0.00012605     0.00061587
H         0.97979778     0.09359711    -0.52007362     0.00022204     0.00067705    -0.00044831
H         0.84116101     0.08967901     1.88278065    -0.00024910     0.00046185    -0.00011653
H        -0.97272498     0.12035639     1.91304963     0.00002786     0.00064622    -0.00003497
H        -1.02461571     0.22962571    -0.55391512     0.00030916     0.00043995     0.00000367
     6
  Step:    32            Position(A)                                  Velocity(au)
C        -0.03973892     0.00719841    -0.12999700    -0.00003589    -0.00004312    -0.00063008
N        -0.04069195    -0.09364252     1.41927733    -0.00000936    -0.00012416     0.00058787
H         0.98106115     0.09747718    -0.52262027     0.00023061     0.00071231    -0.00046081
H         0.84002128     0.09225385     1.88232912    -0.00015598     0.00045593    -0.00004238
H        -0.97212657     0.12396523     1.91263097     0.00018036     0.00064741    -0.00011218
H        -1.02289207     0.23204636    -0.55402202     0.00030276     0.00042359    -0.00004572
     6
  Step:    33            Position(A)                                  Velocity(au)
C        -0.03994870     0.00694744    -0.13341315    -0.00003944    -0.00004679    -0.00059001
N        -0.04078516    -0.09433194     1.42248540    -0.00002313    -0.00012238     0.00055804
H         0.98237814     0.10156736    -0.52522971     0.00024338     0.00075422    -0.00047186
H         0.83941567     0.09478053     1.88230646    -0.00006002     0.00044315     0.00003647
H        -0.97070688     0.12760046     1.91179447     0.00032018     0.00065773    -0.00018421
H        -1.02122810     0.23436541    -0.55442673     0.00028781     0.00040316    -0.00010453
     6
  Step:    34            Position(A)                                  Velocity(au)
C        -0.04017994     0.00667517    -0.13659503    -0.00004394    -0.00005097    -0.00054484
N        -0.04095060    -0.09501112     1.42551785    -0.00003486    -0.00012044     0.00052420
H         0.98378289     0.10591154    -0.52789706     0.00026584     0.00080522    -0.00048407
H         0.83935008     0.09720952     1.88273701     0.00003565     0.00041940     0.00011988
H        -0.96854607     0.13132053     1.91057096     0.00044410     0.00067930    -0.00025038
H        -1.01967353     0.23655482    -0.55519092     0.00026239     0.00037725    -0.00017762
     6
  Step:    35            Position(A)                                  Velocity(au)
C        -0.04043975     0.00637774    -0.13950231    -0.00004965    -0.00005615    -0.00048916
N        -0.04117475    -0.09567804     1.42834393    -0.00004406    -0.00011782     0.00048255
H         0.98534918     0.11056654    -0.53063978     0.00030538     0.00086478    -0.00050398
H         0.83981410     0.09946780     1.88364629     0.00012861     0.00038342     0.00020758
H        -0.96574354     0.13519242     1.90899624     0.00054859     0.00070996    -0.00030869
H        -1.01829562     0.23858160    -0.55641179     0.00022140     0.00034823    -0.00027172
     6
  Step:    36            Position(A)                                  Velocity(au)
C        -0.04073447     0.00604807    -0.14205843    -0.00005553    -0.00006269    -0.00041920
N        -0.04144276    -0.09632709     1.43090740    -0.00005106    -0.00011408     0.00043044
H         0.98719364     0.11557022    -0.53352594     0.00036329     0.00092479    -0.00053946
H         0.84078651     0.10149187     1.88505541     0.00021701     0.00034280     0.00029637
H        -0.96241895     0.13925000     1.90712324     0.00063138     0.00073924    -0.00035515
H        -1.01720075     0.24044420    -0.55822571     0.00015968     0.00032558    -0.00038817
     6
  Step:    37            Position(A)                                  Velocity(au)
C        -0.04105959     0.00567802    -0.14418110    -0.00005985    -0.00007042    -0.00033803
N        -0.04174468    -0.09695136     1.43314824    -0.00005665    -0.00010938     0.00037013
H         0.98940395     0.12088836    -0.53666089     0.00042918     0.00097498    -0.00059111
H         0.84223622     0.10329388     1.88695420     0.00029836     0.00030898     0.00038021
H        -0.95869654     0.14344327     1.90503230     0.00069326     0.00075664    -0.00038672
H        -1.01651340     0.24221551    -0.56074421     0.00007965     0.00031844    -0.00051783
     6
  Step:    38            Position(A)                                  Velocity(au)
C        -0.04140195     0.00526270    -0.14582853    -0.00006178    -0.00007875    -0.00025231
N        -0.04207464    -0.09754698     1.43503550    -0.00006117    -0.00010422     0.00030636
H         0.99198030     0.12644439    -0.54011872     0.00049019     0.00101219    -0.00065202
H         0.84411418     0.10493796     1.88929593     0.00036935     0.00028609     0.00045427
H        -0.95468695     0.14768893     1.90281011     0.00073641     0.00076111    -0.00040371
H        -1.01631243     0.24399583    -0.56400111    -0.00000970     0.00032724    -0.00064929
     6
  Step:    39            Position(A)                                  Velocity(au)
C        -0.04174817     0.00480039    -0.14699305    -0.00007801    -0.00011059    -0.00021109
N        -0.04242639    -0.09811286     1.43656257    -0.00008168    -0.00012547     0.00030719
H         0.99486699     0.13216912    -0.54392752     0.00068355     0.00131650    -0.00090715
H         0.84635257     0.10648233     1.89201696     0.00054136     0.00034475     0.00065472
H        -0.95048938     0.15192568     1.90053301     0.00096655     0.00095947    -0.00051719
H        -1.01662150     0.24586256    -0.56798049    -0.00012683     0.00044068    -0.00098395
     6
  Step:    40            Position(A)                                  Velocity(au)
C        -0.04214158     0.00418140    -0.14812466    -0.00006387    -0.00011141    -0.00019703
N        -0.04290670    -0.09881121     1.43822855    -0.00008881    -0.00012549     0.00029202
H         0.99840605     0.13936523    -0.54895991     0.00058239     0.00127212    -0.00089314
H         0.84947627     0.10857502     1.89569791     0.00056955     0.00039846     0.00066274
H        -0.94500501     0.15713176     1.89768058     0.00099186     0.00091972    -0.00050372
H        -1.01740613     0.24844830    -0.57344335    -0.00014856     0.00048113    -0.00097603
     6
  Step:    41            Position(A)                                  Velocity(au)
C        -0.04245952     0.00355960    -0.14918744    -0.00005094    -0.00011170    -0.00018585
N        -0.04341552    -0.09951051     1.43981487    -0.00009204    -0.00012582     0.00027831
H         1.00135329     0.14633722    -0.55387481     0.00047294     0.00123566    -0.00086688
H         0.85269586     0.11092015     1.89939816     0.00057639     0.00043655     0.00066195
H        -0.93944260     0.16216896     1.89492289     0.00099494     0.00089811    -0.00048309
H        -1.01827604     0.25122113    -0.57885092    -0.00015824     0.00050914    -0.00096485
     6
  Step:    42            Position(A)                                  Velocity(au)
C        -0.04270883     0.00293765    -0.15019414    -0.00003923    -0.00011156    -0.00017659
N        -0.04393153    -0.10021222     1.44132755    -0.00009157    -0.00012640     0.00026546
H         1.00367219     0.15312426    -0.55861258     0.00035818     0.00120547    -0.00083118
H         0.85589437     0.11343601     1.90306866     0.00056291     0.00046102     0.00065249
H        -0.93392638     0.16713217     1.89230133     0.00097607     0.00089250    -0.00045496
H        -1.01916812     0.25411760    -0.58418699    -0.00015721     0.00052677    -0.00095093
     6
  Step:    43            Position(A)                                  Velocity(au)
C        -0.04289620     0.00231774    -0.15115331    -0.00002868    -0.00011106    -0.00016865
N        -0.04443492    -0.10091758     1.44276999    -0.00008772    -0.00012719     0.00025309
H         1.00534067     0.15975683    -0.56312774     0.00024045     0.00118020    -0.00078834
H         0.85896236     0.11605233     1.90666183     0.00053070     0.00047383     0.00063476
H        -0.92857681     0.17210453     1.88985820     0.00093626     0.00090094    -0.00041935
H        -1.02002612     0.25708528    -0.58943692    -0.00014662     0.00053583    -0.00093447
     6
  Step:    44            Position(A)                                  Velocity(au)
C        -0.04302804     0.00170171    -0.15207105    -0.00001927    -0.00011025    -0.00016167
N        -0.04490778    -0.10162769     1.44414421    -0.00008085    -0.00012818     0.00024104
H         1.00634817     0.16625873    -0.56738609     0.00012162     0.00115881    -0.00074017
H         0.86180061     0.11870934     1.91013297     0.00048174     0.00047677     0.00060939
H        -0.92350670     0.17715881     1.88763433     0.00087724     0.00092167    -0.00037675
H        -1.02079984     0.26008086    -0.59458672    -0.00012749     0.00053778    -0.00091555
     6