|===============================================================================
|
|  DFTB+ release 20.1
|
|  Copyright (C) 2006 - 2020  DFTB+ developers group
|
|===============================================================================
|
|  When publishing results obtained with DFTB+, please cite the following
|  reference:
|
|  * DFTB+, a software package for efficient approximate density functional
|    theory based atomistic simulations, J. Chem. Phys. 152, 124101 (2020).
|    [doi: 10.1063/1.5143190]
|
|  You should also cite additional publications crediting the parametrization
|  data you use. Please consult the documentation of the SK-files for the
|  references.
|
|===============================================================================

Reading input file 'dftb_in.hsd'
Parser version: 8

--------------------------------------------------------------------------------
Reading SK-files:
Done.


Processed input in HSD format written to 'dftb_pin.hsd'

Starting initialization...
--------------------------------------------------------------------------------
OpenMP threads:              1
Chosen random seed:          500442640
Mode:                        Static calculation
Self consistent charges:     Yes
SCC-tolerance:                 0.100000E-05
Max. scc iterations:                   1000
Shell resolved Hubbard:      No
Spin polarisation:           No
Nr. of up electrons:            16.000000
Nr. of down electrons:          16.000000
Periodic boundaries:         No
Electronic solver:           Relatively robust
Maximal SCC-cycles:                    1000
Initial charges:             Set automatically (system chrg:   0.100E+01)
Included shells:             C:  s, p
                             H:  s
                             N:  s, p
Spin coupling constants:     C   1(s)-1(s):  -0.455900E-01
                             C   1(s)-2(p):  -0.293000E-01
                             C   2(p)-1(s):  -0.293000E-01
                             C   2(p)-2(p):  -0.275500E-01
                             H   1(s)-1(s):  -0.792500E-01
                             N   1(s)-1(s):  -0.468700E-01
                             N   1(s)-2(p):  -0.317000E-01
                             N   2(p)-1(s):  -0.317000E-01
                             N   2(p)-2(p):  -0.307200E-01
Range separated hybrid:      Yes
  Screening parameter omega:   0.300000E+00
  Range separated algorithm:   MatrixBased
Extra options:
                             Mulliken analysis
                             Force calculation
Force type                   original
                             Eigenvector printing


REKS Calcuation:             Yes
SSR(2,2) Calcuation:         Yes
Energy Functional:           (PPS+OSS)/2
Number of Core Orbitals:                 15
Number of Active Orbitals:                2
Number of Basis:                         32
Number of States:                         2
State-Averaging Weight:          0.500000
                                 0.500000
State of Interest:                        1
Initial Guess:               Diagonalize H0 matrix
Newton-Raphson for FON opt:  Yes
NR max. Iterations:                      50
Level Shifting:              Yes
Shift Value:                     0.300000
W Scale Factor:              C  =    3.200000
                             H  =    3.200000
                             N  =    3.200000
Transition Dipole:           No
Gradient of Microstate:      No
CP-REKS Solver:              Preconditioned Conjugate-Gradient
CG max. Iterations:                     100
CG Tolerance:                  0.100000E-07
Memory for A and Hxc:        Direct Updating Without Saving
Non-Adiabatic Coupling:      Yes

--------------------------------------------------------------------------------

***  Geometry step: 0

  iSCC       reks energy        Diff energy         x_a       SCC error   
    1      -16.3812241958       0.0000000000     0.999704    1.24873521
    2      -16.3947889691      -0.0135647733     0.999950    0.04940023
    3      -16.3975112656      -0.0027222965     0.999980    0.01966280
    4      -16.3985482294      -0.0010369638     0.999989    0.01032628
    5      -16.3990414211      -0.0004931917     0.999993    0.00643108
    6      -16.3993018394      -0.0002604183     0.999995    0.00453820
    7      -16.3994493625      -0.0001475231     0.999996    0.00356174
    8      -16.3995383233      -0.0000889608     0.999996    0.00280181
    9      -16.3995954580      -0.0000571347     0.999997    0.00222217
   10      -16.3996345447      -0.0000390868     0.999997    0.00178391
   11      -16.3996629218      -0.0000283770     0.999997    0.00145306
   12      -16.3996846179      -0.0000216961     0.999998    0.00120243
   13      -16.3997019173      -0.0000172995     0.999998    0.00101119
   14      -16.3997161626      -0.0000142452     0.999998    0.00086380
   15      -16.3997281745      -0.0000120119     0.999998    0.00074883
   16      -16.3997384774      -0.0000103029     0.999998    0.00066189
   17      -16.3997474220      -0.0000089446     0.999998    0.00065174
   18      -16.3997552538      -0.0000078318     0.999998    0.00063609
   19      -16.3997621526      -0.0000068988     0.999998    0.00061667
   20      -16.3997682555      -0.0000061029     0.999998    0.00059481
   21      -16.3997736707      -0.0000054153     0.999998    0.00057146
   22      -16.3997784863      -0.0000048156     0.999998    0.00054735
   23      -16.3997827756      -0.0000042892     0.999998    0.00052300
   24      -16.3997866004      -0.0000038249     0.999998    0.00049878
   25      -16.3997900142      -0.0000034138     0.999998    0.00047498
   26      -16.3997930630      -0.0000030489     0.999998    0.00045178
   27      -16.3997957874      -0.0000027244     0.999998    0.00042930
   28      -16.3997982228      -0.0000024354     0.999998    0.00040764
   29      -16.3998004006      -0.0000021778     0.999999    0.00038684
   30      -16.3998023486      -0.0000019480     0.999999    0.00036692
   31      -16.3998040914      -0.0000017428     0.999999    0.00034789
   32      -16.3998056508      -0.0000015595     0.999999    0.00032975
   33      -16.3998070465      -0.0000013957     0.999999    0.00031248
   34      -16.3998082957      -0.0000012492     0.999999    0.00029605
   35      -16.3998094140      -0.0000011183     0.999999    0.00028044
   36      -16.3998104153      -0.0000010012     0.999999    0.00026561
   37      -16.3998113118      -0.0000008965     0.999999    0.00025155
   38      -16.3998121145      -0.0000008028     0.999999    0.00023821
   39      -16.3998128335      -0.0000007189     0.999999    0.00022556
   40      -16.3998134774      -0.0000006439     0.999999    0.00021357
   41      -16.3998140541      -0.0000005767     0.999999    0.00020221
   42      -16.3998145707      -0.0000005166     0.999999    0.00019145
   43      -16.3998150334      -0.0000004627     0.999999    0.00018126
   44      -16.3998154480      -0.0000004146     0.999999    0.00017160
   45      -16.3998158193      -0.0000003714     0.999999    0.00016246
   46      -16.3998161521      -0.0000003327     0.999999    0.00015380
   47      -16.3998164502      -0.0000002981     0.999999    0.00014561
   48      -16.3998167173      -0.0000002671     0.999999    0.00013785
   49      -16.3998169567      -0.0000002394     0.999999    0.00013050
   50      -16.3998171712      -0.0000002145     0.999999    0.00012355
   51      -16.3998173634      -0.0000001922     0.999999    0.00011696
   52      -16.3998175356      -0.0000001722     0.999999    0.00011073
   53      -16.3998176900      -0.0000001544     0.999999    0.00010483
   54      -16.3998178283      -0.0000001383     0.999999    0.00009924
   55      -16.3998179523      -0.0000001240     0.999999    0.00009395
   56      -16.3998180634      -0.0000001111     0.999999    0.00008895
   57      -16.3998181630      -0.0000000996     0.999999    0.00008421
   58      -16.3998182523      -0.0000000893     0.999999    0.00007972
   59      -16.3998183323      -0.0000000800     0.999999    0.00007548
   60      -16.3998184040      -0.0000000717     0.999999    0.00007146
   61      -16.3998184683      -0.0000000643     0.999999    0.00006765
   62      -16.3998185259      -0.0000000576     0.999999    0.00006405
   63      -16.3998185776      -0.0000000517     0.999999    0.00006064
   64      -16.3998186239      -0.0000000463     0.999999    0.00005741
   65      -16.3998186654      -0.0000000415     0.999999    0.00005435
   66      -16.3998187026      -0.0000000372     0.999999    0.00005146
   67      -16.3998187360      -0.0000000334     0.999999    0.00004872
   68      -16.3998187658      -0.0000000299     0.999999    0.00004613
   69      -16.3998187927      -0.0000000268     0.999999    0.00004368
   70      -16.3998188167      -0.0000000240     0.999999    0.00004135
   71      -16.3998188382      -0.0000000215     0.999999    0.00003915
   72      -16.3998188575      -0.0000000193     0.999999    0.00003707
   73      -16.3998188748      -0.0000000173     0.999999    0.00003510
   74      -16.3998188904      -0.0000000155     0.999999    0.00003323
   75      -16.3998189043      -0.0000000139     0.999999    0.00003146
   76      -16.3998189168      -0.0000000125     0.999999    0.00002979
   77      -16.3998189279      -0.0000000112     0.999999    0.00002821
   78      -16.3998189380      -0.0000000100     0.999999    0.00002671
   79      -16.3998189470      -0.0000000090     0.999999    0.00002529
   80      -16.3998189550      -0.0000000081     0.999999    0.00002394
   81      -16.3998189622      -0.0000000072     0.999999    0.00002267
   82      -16.3998189687      -0.0000000065     0.999999    0.00002146
   83      -16.3998189745      -0.0000000058     0.999999    0.00002032
   84      -16.3998189797      -0.0000000052     0.999999    0.00001924
   85      -16.3998189844      -0.0000000047     0.999999    0.00001822
   86      -16.3998189886      -0.0000000042     0.999999    0.00001725
   87      -16.3998189923      -0.0000000038     0.999999    0.00001634
   88      -16.3998189957      -0.0000000034     0.999999    0.00001547
   89      -16.3998189987      -0.0000000030     0.999999    0.00001465
   90      -16.3998190014      -0.0000000027     0.999999    0.00001387
   91      -16.3998190039      -0.0000000024     0.999999    0.00001313
   92      -16.3998190060      -0.0000000022     0.999999    0.00001243
   93      -16.3998190080      -0.0000000019     0.999999    0.00001177
   94      -16.3998190097      -0.0000000017     0.999999    0.00001115
   95      -16.3998190113      -0.0000000016     0.999999    0.00001056
   96      -16.3998190127      -0.0000000014     0.999999    0.00000999
   97      -16.3998190140      -0.0000000013     0.999999    0.00000946
   98      -16.3998190151      -0.0000000011     0.999999    0.00000896
   99      -16.3998190161      -0.0000000010     0.999999    0.00000849
  100      -16.3998190170      -0.0000000009     0.999999    0.00000803
  101      -16.3998190178      -0.0000000008     0.999999    0.00000761
  102      -16.3998190186      -0.0000000007     0.999999    0.00000720
  103      -16.3998190192      -0.0000000007     0.999999    0.00000682
  104      -16.3998190198      -0.0000000006     0.999999    0.00000646
  105      -16.3998190203      -0.0000000005     0.999999    0.00000612
  106      -16.3998190208      -0.0000000005     0.999999    0.00000579
  107      -16.3998190212      -0.0000000004     0.999999    0.00000548
  108      -16.3998190216      -0.0000000004     0.999999    0.00000519
  109      -16.3998190219      -0.0000000003     0.999999    0.00000492
  110      -16.3998190223      -0.0000000003     0.999999    0.00000466
  111      -16.3998190225      -0.0000000003     0.999999    0.00000441
  112      -16.3998190228      -0.0000000002     0.999999    0.00000417
  113      -16.3998190230      -0.0000000002     0.999999    0.00000395
  114      -16.3998190232      -0.0000000002     0.999999    0.00000374
  115      -16.3998190234      -0.0000000002     0.999999    0.00000354
  116      -16.3998190235      -0.0000000002     0.999999    0.00000336
  117      -16.3998190237      -0.0000000001     0.999999    0.00000318
  118      -16.3998190238      -0.0000000001     0.999999    0.00000301
  119      -16.3998190239      -0.0000000001     0.999999    0.00000285
  120      -16.3998190240      -0.0000000001     0.999999    0.00000270
  121      -16.3998190241      -0.0000000001     0.999999    0.00000255
  122      -16.3998190242      -0.0000000001     0.999999    0.00000242
  123      -16.3998190243      -0.0000000001     0.999999    0.00000229
  124      -16.3998190243      -0.0000000001     0.999999    0.00000217
  125      -16.3998190244      -0.0000000001     0.999999    0.00000205
  126      -16.3998190244      -0.0000000001     0.999999    0.00000194
  127      -16.3998190245      -0.0000000000     0.999999    0.00000184
  128      -16.3998190245      -0.0000000000     0.999999    0.00000174
  129      -16.3998190246      -0.0000000000     0.999999    0.00000165
  130      -16.3998190246      -0.0000000000     0.999999    0.00000156
  131      -16.3998190246      -0.0000000000     0.999999    0.00000148
  132      -16.3998190247      -0.0000000000     0.999999    0.00000140
  133      -16.3998190247      -0.0000000000     0.999999    0.00000133
  134      -16.3998190247      -0.0000000000     0.999999    0.00000126
  135      -16.3998190247      -0.0000000000     0.999999    0.00000119
  136      -16.3998190247      -0.0000000000     0.999999    0.00000113
  137      -16.3998190248      -0.0000000000     0.999999    0.00000107
  138      -16.3998190248      -0.0000000000     0.999999    0.00000101
  139      -16.3998190248      -0.0000000000     0.999999    0.00000096
  
--------------------------------------------------
 Final SA-REKS(2,2) energy:     -16.39981902
  
 State     Energy      FON(1)    FON(2)   Spin
  PPS  -16.47028972   1.999998  0.000002  0.00
  OSS  -16.32934833   1.000000  1.000000  0.00
 Trip  -16.36320746   1.000000  1.000000  1.00
--------------------------------------------------

 Lagrangian Wab:  -0.00022194 -0.00022221

--------------------------------------------------
 SSR: 2SI-2SA-REKS(2,2) Hamiltonian matrix
               PPS           OSS
   PPS   -16.47028972   -0.00031353
   OSS    -0.00031353  -16.32934833
--------------------------------------------------

----------------------------------------------------------------
 SSR: 2SI-2SA-REKS(2,2) states
                    E_n       C_{PPS}    C_{OSS}
 SSR state  1  -16.47029042  -0.999998  -0.002225
 SSR state  2  -16.32934763   0.002225  -0.999998
----------------------------------------------------------------

 unrelaxed SSR FONs for S0:  1.999993  0.000007

Total Energy:                      -16.4702904194 H         -448.1794 eV
Extrapolated to 0:                 -16.4702904194 H         -448.1794 eV

----------------------------------------------------------------------------------
 Solving CP-REKS equation for  1 state vector...
----------------------------------------------------------------------------------
  CG solver: Constructing Y initial guess
  CG solver: Iteration    1    eps =    0.000234680539
  CG solver: Iteration    2    eps =    0.000075922083
  CG solver: Iteration    3    eps =    0.000020324555
  CG solver: Iteration    4    eps =    0.000009696078
  CG solver: Iteration    5    eps =    0.000002127150
  CG solver: Iteration    6    eps =    0.000002422855
  CG solver: Iteration    7    eps =    0.000000794602
  CG solver: Iteration    8    eps =    0.000000109547
  CG solver: Iteration    9    eps =    0.000000035453
  CG solver: Iteration   10    eps =    0.000000003694
  Convergence reached in CG solver after   10 iterations
  CG solver: Calculating converged R, Z, Q2 matrix
----------------------------------------------------------------------------------

----------------------------------------------------------------------------------
 Solving CP-REKS equation for SI between  1 and  2 state vectors...
----------------------------------------------------------------------------------
  CG solver: Constructing Y initial guess
  CG solver: Iteration    1    eps =    0.054796593781
  CG solver: Iteration    2    eps =    0.002756777723
  CG solver: Iteration    3    eps =    0.001439048238
  CG solver: Iteration    4    eps =    0.001804019889
  CG solver: Iteration    5    eps =    0.000228742786
  CG solver: Iteration    6    eps =    0.000226272653
  CG solver: Iteration    7    eps =    0.000103683714
  CG solver: Iteration    8    eps =    0.000013330205
  CG solver: Iteration    9    eps =    0.000001664236
  CG solver: Iteration   10    eps =    0.000000236644
  CG solver: Iteration   11    eps =    0.000000047835
  CG solver: Iteration   12    eps =    0.000000003243
  Convergence reached in CG solver after   12 iterations
  CG solver: Calculating converged R, Z, Q2 matrix
----------------------------------------------------------------------------------

--------------------------------------------------
 Gradient Information
--------------------------------------------------
           1 st state (SSR)
    -0.05922484     0.01804183     0.05831281
    -0.00140494     0.00405430    -0.03281561
     0.01008088    -0.00854416     0.00223889
     0.04798061    -0.01353011    -0.05810005
    -0.00980422     0.01143153     0.01100060
     0.03737408    -0.03501836     0.04366113
     0.02309096     0.03583415    -0.01413623
    -0.00376778     0.00506161    -0.02676156
    -0.03214818     0.04447516     0.06001550
    -0.01517435     0.01117221     0.01150577
     0.01321162    -0.00771307     0.00237189
    -0.03036337    -0.11219833    -0.11905275
     0.00277834     0.02634370     0.02234378
     0.01737120     0.02058952     0.03941581

           2 st state (SSR)
    -0.02958958     0.05228524     0.03821469
    -0.02117015    -0.03414072    -0.00803645
     0.01555711    -0.00625989     0.00448951
     0.03860878    -0.01340230    -0.06425290
    -0.00246151     0.00615480     0.01710560
     0.05816580    -0.01554800     0.03731492
    -0.02564819     0.01302891    -0.02017241
     0.00133895     0.00337819    -0.02539172
    -0.03271565     0.04333928     0.06277504
    -0.01986691     0.08906757     0.04514283
     0.01445606    -0.00856019     0.00364831
    -0.01432337    -0.18467177    -0.15104184
     0.00347555     0.02557453     0.02795551
     0.01417310     0.02975437     0.03224893
--------------------------------------------------
 Coupling Information
--------------------------------------------------
 between  1 and  2 states
--------------------------------------------------
 g vector - difference gradient
    -0.01489219    -0.01719547     0.01012455
     0.00990204     0.01913466    -0.01241219
    -0.00276562    -0.00114818    -0.00113626
     0.00471365    -0.00006535     0.00309421
    -0.00371294     0.00266430    -0.00310694
    -0.01004238    -0.00970021     0.00322212
     0.02414457     0.01133649     0.00301579
    -0.00257741     0.00088452    -0.00071575
     0.00028332     0.00056505    -0.00138454
     0.00232143    -0.03893982    -0.01683632
    -0.00062193     0.00043092    -0.00064602
    -0.00800744     0.03624411     0.01600777
    -0.00034905     0.00037059    -0.00279772
     0.00160397    -0.00458162     0.00357129

 h vector - derivative coupling
     0.01672508     0.01654176    -0.01694464
    -0.00434622    -0.00830763     0.00505461
     0.00617707     0.00135613     0.00245890
    -0.00622399     0.00032357    -0.00398889
     0.00933902    -0.00582415     0.01222921
    -0.07947278    -0.00788033    -0.01101040
     0.05062761     0.01489045     0.00052330
     0.00539843    -0.00961864     0.00692868
     0.00009427     0.00065193     0.00106805
     0.00559007    -0.00185315     0.00396082
    -0.00006651    -0.00165321     0.00175406
    -0.00284001    -0.00158108    -0.00293706
     0.00009975     0.00314622    -0.00183628
    -0.00110177    -0.00019188     0.00273965

 G vector - GDV
    -0.01481763    -0.01712170     0.01004906
     0.00988260     0.01909751    -0.01238958
    -0.00273811    -0.00114213    -0.00112531
     0.00468591    -0.00006391     0.00307643
    -0.00367136     0.00263837    -0.00305250
    -0.01039586    -0.00973518     0.00317310
     0.02436957     0.01140262     0.00301809
    -0.00255336     0.00084171    -0.00068492
     0.00028374     0.00056794    -0.00137977
     0.00234628    -0.03894768    -0.01681853
    -0.00062222     0.00042356    -0.00063821
    -0.00802000     0.03623672     0.01599455
    -0.00034860     0.00038458    -0.00280587
     0.00159905    -0.00458242     0.00358344

 H vector - DCV - non-adiabatic coupling
     0.11913462     0.11790674    -0.12054193
    -0.03114901    -0.05954672     0.03625432
     0.04391364     0.00965797     0.01748179
    -0.04430806     0.00229779    -0.02839891
     0.06637764    -0.04140649     0.08686442
    -0.56354297    -0.05560479    -0.07822059
     0.35844109     0.10528997     0.00361762
     0.03838325    -0.06827222     0.04918161
     0.00065992     0.00460762     0.00762152
     0.03958831    -0.01191889     0.02863352
    -0.00045227    -0.01174315     0.01246543
    -0.01989714    -0.01236184    -0.02134375
     0.00071872     0.02231078    -0.01294013
    -0.00786772    -0.00121677     0.01932507
--------------------------------------------------


--------------------------------------------------------------------------------
DFTB+ running times                          cpu [s]             wall clock [s]
--------------------------------------------------------------------------------
SCC                                    +     0.20  ( 38.5%)      0.20  ( 38.6%)
      Sparse to dense                        0.01  (  2.0%)      0.01  (  2.5%)
      Dense to sparse                        0.04  (  7.4%)      0.05  (  8.6%)
      Range separated Hamiltonian            0.02  (  3.4%)      0.02  (  3.3%)
  Density matrix creation                    0.02  (  4.2%)      0.02  (  4.4%)
Post-SCC processing                    +     0.32  ( 61.2%)      0.32  ( 60.8%)
  Force calculation                          0.32  ( 61.2%)      0.32  ( 60.7%)
--------------------------------------------------------------------------------
Missing                                +     0.00  (  0.3%)      0.00  (  0.6%)
Total                                  =     0.52  (100.0%)      0.52  (100.0%)
--------------------------------------------------------------------------------
