 Fermi distribution function

Calculation with static geometry


********************************************************************************
 iSCC Total electronic   Diff electronic      SCC error    
    9   -0.54429126E+01   -0.82600593E-13    0.90594855E-06
********************************************************************************

 Total charge:     1.00000000

 Atomic gross charges (e)
 Atom           Charge
    1       0.14885733
    2      -0.02191691
    3       0.16896846
    4       0.26994392
    5       0.27089791
    6       0.16324930

Nr. of electrons (up):     12.00000000
Atom populations (up)
 Atom       Population
    1       3.85114267
    2       5.02191691
    3       0.83103154
    4       0.73005608
    5       0.72910209
    6       0.83675070

l-shell populations (up)
 Atom Sh.   l       Population
    1   1   0       1.30442518
    1   2   1       2.54671749
    2   1   0       1.41336505
    2   2   1       3.60855186
    3   1   0       0.83103154
    4   1   0       0.73005608
    5   1   0       0.72910209
    6   1   0       0.83675070

Orbital populations (up)
 Atom Sh.   l   m       Population  Label
    1   1   0   0       1.30442518  s
    1   2   1  -1       0.61848919  p_y
    1   2   1   0       0.88486637  p_z
    1   2   1   1       1.04336193  p_x
    2   1   0   0       1.41336505  s
    2   2   1  -1       1.35092178  p_y
    2   2   1   0       1.10857110  p_z
    2   2   1   1       1.14905898  p_x
    3   1   0   0       0.83103154  s
    4   1   0   0       0.73005608  s
    5   1   0   0       0.72910209  s
    6   1   0   0       0.83675070  s

Fermi level:                        -0.4936775887 H          -13.4337 eV
Band energy:                        -8.9904747384 H         -244.6433 eV
TS:                                  0.0000000000 H            0.0000 eV
Band free energy (E-TS):            -8.9904747384 H         -244.6433 eV
Extrapolated E(0K):                 -8.9904747384 H         -244.6433 eV
Input / Output electrons (q):     12.0000000000     12.0000000000

Energy H0:                          -5.5776085608 H         -151.7745 eV
Energy SCC:                          0.1346959902 H            3.6653 eV
Total Electronic energy:            -5.4429125706 H         -148.1092 eV
Repulsive energy:                    0.2011296698 H            5.4730 eV
Total energy:                       -5.2417829008 H         -142.6362 eV
Extrapolated to 0:                  -5.2417829008 H         -142.6362 eV
Total Mermin free energy:           -5.2417829008 H         -142.6362 eV
Force related energy:               -5.2417829008 H         -142.6362 eV

SCC converged

Excitation Energy:                   0.1713134088 H            4.6617 eV

Total Forces
    1      0.003467731581     -0.004820750521     -0.019803778562
    2      0.004428774790      0.009794902778     -0.003824720519
    3     -0.011246718408     -0.000476352884      0.007138147715
    4     -0.001936469167     -0.003466752041      0.005010404680
    5     -0.002274187332     -0.000406776513      0.007851180251
    6      0.007560868536     -0.000624270819      0.003628766435

Maximal derivative component:        0.198038E-01 au


