     6
  Step:   120            Position(A)                                  Velocity(au)
C        -0.02415486    -0.07093787    -0.02945688     0.00010487    -0.00011481    -0.00025191
N        -0.05333013    -0.05659739     1.34545498     0.00000606     0.00014091     0.00009473
H         0.79530736     0.59740312    -0.50951823    -0.00046707     0.00101495     0.00072999
H         0.87087432    -0.20807160     1.83077678    -0.00048993    -0.00146322     0.00012321
H        -0.88497034     0.31420275     1.84250426     0.00010998     0.00049630     0.00042047
H        -0.96523351     0.25847171    -0.61761341    -0.00048682    -0.00063809     0.00041161
