 Fermi distribution function

Calculation with static geometry


********************************************************************************
 iSCC Total electronic   Diff electronic      SCC error    
   13   -0.52757360E+01   -0.75533535E-09    0.34883845E-06
********************************************************************************

 Total charge:     1.00000000

 Atomic gross charges (e)
 Atom           Charge
    1       0.30826902
    2      -0.20517726
    3       0.18104312
    4       0.26036174
    5       0.27295015
    6       0.18255322

Nr. of electrons (up):     12.00000000
Atom populations (up)
 Atom       Population
    1       3.69173098
    2       5.20517726
    3       0.81895688
    4       0.73963826
    5       0.72704985
    6       0.81744678

l-shell populations (up)
 Atom Sh.   l       Population
    1   1   0       1.41044126
    1   2   1       2.28128972
    2   1   0       1.51350829
    2   2   1       3.69166897
    3   1   0       0.81895688
    4   1   0       0.73963826
    5   1   0       0.72704985
    6   1   0       0.81744678

Orbital populations (up)
 Atom Sh.   l   m       Population  Label
    1   1   0   0       1.41044126  s
    1   2   1  -1       0.42867110  p_y
    1   2   1   0       0.85857371  p_z
    1   2   1   1       0.99404491  p_x
    2   1   0   0       1.51350829  s
    2   2   1  -1       1.40346575  p_y
    2   2   1   0       1.04600590  p_z
    2   2   1   1       1.24219732  p_x
    3   1   0   0       0.81895688  s
    4   1   0   0       0.73963826  s
    5   1   0   0       0.72704985  s
    6   1   0   0       0.81744678  s

Fermi level:                        -0.5075137064 H          -13.8102 eV
Band energy:                        -8.6247351475 H         -234.6910 eV
TS:                                  0.0000000000 H            0.0000 eV
Band free energy (E-TS):            -8.6247351475 H         -234.6910 eV
Extrapolated E(0K):                 -8.6247351475 H         -234.6910 eV
Input / Output electrons (q):     12.0000000000     12.0000000000

Energy H0:                          -5.4093662524 H         -147.1963 eV
Energy SCC:                          0.1336302692 H            3.6363 eV
Total Electronic energy:            -5.2757359832 H         -143.5601 eV
Repulsive energy:                    0.1347533529 H            3.6668 eV
Total energy:                       -5.1409826303 H         -139.8933 eV
Extrapolated to 0:                  -5.1409826303 H         -139.8933 eV
Total Mermin free energy:           -5.1409826303 H         -139.8933 eV
Force related energy:               -5.1409826303 H         -139.8933 eV

SCC converged

Excitation Energy:                   0.1030685232 H            2.8046 eV

Total Forces
    1      0.008724937863      0.000101992682      0.041174237390
    2     -0.019755203104      0.012915415510     -0.038417905928
    3     -0.011419351699      0.006455138328      0.007204213555
    4      0.007848297186     -0.010427818909      0.003030571358
    5      0.015028766385      0.000132677596     -0.010822382004
    6     -0.000427446631     -0.009177405208     -0.002168734371

Maximal derivative component:        0.411742E-01 au


