     6
  Step:     0            Position(A)                                  Velocity(au)
C        -0.03267640     0.00984459    -0.00327033    -0.00000277    -0.00004592     0.00004553
N        -0.05267773    -0.05850732     1.31207929    -0.00005741    -0.00007386    -0.00000853
H         0.93038043     0.04233451    -0.52063626    -0.00054207     0.00032763     0.00020327
H         0.86711373    -0.10331519     1.86304726     0.00090903     0.00040018     0.00057471
H        -0.88998446     0.00305906     1.84395250     0.00044886     0.00048776    -0.00116599
H        -0.99904487     0.08387363    -0.48846844     0.00001494     0.00035794    -0.00003593
     6
  Step:     1            Position(A)                                  Velocity(au)
C        -0.03267993     0.00959414    -0.00305411     0.00000125    -0.00004571     0.00003360
N        -0.05293312    -0.05892077     1.31208774    -0.00003468    -0.00007750     0.00001144
H         0.92752472     0.04415988    -0.51977266    -0.00049831     0.00034033     0.00011009
H         0.87170819    -0.10111525     1.86604254     0.00076294     0.00040486     0.00051569
H        -0.88796259     0.00578505     1.83794749     0.00027901     0.00051073    -0.00102170
H        -0.99921459     0.08585194    -0.48901588    -0.00007660     0.00036572    -0.00016343
     6
  Step:     2            Position(A)                                  Velocity(au)
C        -0.03266277     0.00934473    -0.00290289     0.00000473    -0.00004557     0.00002177
N        -0.05305700    -0.05935492     1.31220445    -0.00000965    -0.00008148     0.00003110
H         0.92493088     0.04605635    -0.51943226    -0.00044732     0.00035397     0.00001233
H         0.87545733    -0.09888764     1.86868688     0.00060218     0.00041056     0.00044787
H        -0.88693319     0.00864443     1.83277916     0.00008901     0.00053693    -0.00086302
H        -0.99988263     0.08787314    -0.49025577    -0.00016614     0.00037386    -0.00028871
     6
  Step:     3            Position(A)                                  Velocity(au)
C        -0.03262823     0.00909596    -0.00281620     0.00000754    -0.00004551     0.00000997
N        -0.05303862    -0.05981145     1.31242774     0.00001702    -0.00008576     0.00005053
H         0.92263511     0.04802903    -0.51963787    -0.00039036     0.00036861    -0.00008934
H         0.87829049    -0.09662744     1.87093815     0.00042995     0.00041712     0.00037333
H        -0.88698958     0.01165415     1.82851397    -0.00011484     0.00056615    -0.00069450
H        -1.00103068     0.08993857    -0.49217169    -0.00025126     0.00038219    -0.00041054
     6
  Step:     4            Position(A)                                  Velocity(au)
C        -0.03258034     0.00884751    -0.00279392     0.00000958    -0.00004551    -0.00000183
N        -0.05287102    -0.06029187     1.31275653     0.00004465    -0.00009030     0.00006986
H         0.92066620     0.05008332    -0.52040824    -0.00032881     0.00038426    -0.00019414
H         0.88015443    -0.09433063     1.87276548     0.00024929     0.00042437     0.00029405
H        -0.88818781     0.01482951     1.82519183    -0.00032547     0.00059797    -0.00052104
H        -1.00262758     0.09204853    -0.49474083    -0.00032969     0.00039049    -0.00052780
     6
  Step:     5            Position(A)                                  Velocity(au)
C        -0.03252361     0.00859909    -0.00283623     0.00001076    -0.00004554    -0.00001372
N        -0.05255112    -0.06079743     1.31319056     0.00007250    -0.00009505     0.00008924
H         0.91904502     0.05222464    -0.52175763    -0.00026413     0.00040091    -0.00030123
H         0.88101239    -0.09199396     1.87414873     0.00006316     0.00043212     0.00021193
H        -0.89054330     0.01818315     1.82282491    -0.00053533     0.00063181    -0.00034769
H        -1.00463044     0.09420217    -0.49793457    -0.00039939     0.00039852    -0.00063948
     6
  Step:     6            Position(A)                                  Velocity(au)
C        -0.03246295     0.00835056    -0.00294367     0.00001101    -0.00004559    -0.00002575
N        -0.05207988    -0.06132905     1.31373031     0.00009984    -0.00009992     0.00010877
H         0.91778395     0.05445824    -0.52369536    -0.00019790     0.00041847    -0.00040961
H         0.88084363    -0.08961509     1.87507818    -0.00012549     0.00044022     0.00012889
H        -0.89402957     0.02172415     1.82139768    -0.00073674     0.00066692    -0.00017940
H        -1.00698593     0.09639737    -0.50171907    -0.00045854     0.00040603    -0.00074458
     6
  Step:     7            Position(A)                                  Velocity(au)
C        -0.03240348     0.00810189    -0.00311704     0.00001033    -0.00004562    -0.00003794
N        -0.05146221    -0.06188723     1.31437693     0.00012594    -0.00010484     0.00012855
H         0.91688658     0.05678883    -0.52622523    -0.00013176     0.00043679    -0.00051819
H         0.87964367    -0.08719252     1.87555457    -0.00031356     0.00044847     0.00004690
H        -0.89857888     0.02545724     1.82086824    -0.00092230     0.00070241    -0.00002081
H        -1.00963168     0.09863067    -0.50605570    -0.00050557     0.00041273    -0.00084222
     6
  Step:     8            Position(A)                                  Velocity(au)
C        -0.03235035     0.00785320    -0.00335728     0.00000870    -0.00004561    -0.00005031
N        -0.05070684    -0.06247203     1.31513187     0.00015010    -0.00010971     0.00014859
H         0.91634745     0.05922034    -0.52934489    -0.00006740     0.00045569    -0.00062573
H         0.87742502    -0.08472571     1.87558945    -0.00049775     0.00045667    -0.00003200
H        -0.90408496     0.02938217     1.82117082    -0.00108527     0.00073731     0.00012395
H        -1.01249789     0.10089717    -0.51090138    -0.00053923     0.00041836    -0.00093155
     6
  Step:     9            Position(A)                                  Velocity(au)
C        -0.03230863     0.00760475    -0.00366538     0.00000617    -0.00004553    -0.00006285
N        -0.04982616    -0.06308300     1.31599648     0.00017168    -0.00011444     0.00016880
H         0.91615192     0.06175554    -0.53304523    -0.00000653     0.00047491    -0.00073086
H         0.87421851    -0.08221507     1.87520579    -0.00067444     0.00046465    -0.00010558
H        -0.91040763     0.03349342     1.82221922    -0.00121987     0.00077061     0.00025144
H        -1.01550891     0.10319052    -0.51620902    -0.00055856     0.00042263    -0.00101179
     6
  Step:    10            Position(A)                                  Velocity(au)
C        -0.03228308     0.00735698    -0.00404218     0.00000280    -0.00004535    -0.00007550
N        -0.04883584    -0.06371917     1.31697147     0.00019009    -0.00011892     0.00018901
H         0.91627630     0.06439585    -0.53730978     0.00004921     0.00049416    -0.00083217
H         0.87007500    -0.07966197     1.87443887    -0.00083971     0.00047223    -0.00017146
H        -0.91737895     0.03778016     1.82391098    -0.00132158     0.00080133     0.00035903
H        -1.01858498     0.10550295    -0.52192781    -0.00056293     0.00042528    -0.00108225
     6
  Step:    11            Position(A)                                  Velocity(au)
C        -0.03227811     0.00711047    -0.00448823    -0.00000133    -0.00004505    -0.00008820
N        -0.04775451    -0.06437906     1.31805639     0.00020482    -0.00012308     0.00020896
H         0.91668825     0.06714102    -0.54211438     0.00009827     0.00051313    -0.00092818
H         0.86506719    -0.07706864     1.87333715    -0.00098934     0.00047925    -0.00022714
H        -0.92481042     0.04222647     1.82613204    -0.00138728     0.00082858     0.00044497
H        -1.02164381     0.10782535    -0.52800359    -0.00055205     0.00042609    -0.00114233
     6
  Step:    12            Position(A)                                  Velocity(au)
C        -0.03229761     0.00686595    -0.00500360    -0.00000613    -0.00004459    -0.00010084
N        -0.04660328    -0.06506074     1.31924916     0.00021545    -0.00012682     0.00022829
H         0.91734745     0.06998906    -0.54742709     0.00013925     0.00053148    -0.00101745
H         0.85929100    -0.07443800     1.87196299    -0.00111896     0.00048563    -0.00027002
H        -0.93250060     0.04681189     1.82876125    -0.00141535     0.00085161     0.00050836
H        -1.02460239     0.11014741    -0.53437942    -0.00052597     0.00042485    -0.00119158
     6
  Step:    13            Position(A)                                  Velocity(au)
C        -0.03234490     0.00662427    -0.00558776    -0.00001146    -0.00004396    -0.00011329
N        -0.04540528    -0.06576186     1.32054559     0.00022168    -0.00013008     0.00024660
H         0.91820663     0.07293617    -0.55320844     0.00017100     0.00054889    -0.00109866
H         0.85286627    -0.07177341     1.87039291    -0.00122421     0.00049132    -0.00029754
H        -0.94024310     0.05151225     1.83167515    -0.00140562     0.00086982     0.00054919
H        -1.02737894     0.11245787    -0.54099637    -0.00048515     0.00042144    -0.00122975
     6
  Step:    14            Position(A)                                  Velocity(au)
C        -0.03242263     0.00638639    -0.00623945    -0.00001721    -0.00004315    -0.00012541
N        -0.04418506    -0.06647980     1.32193922     0.00022330    -0.00013284     0.00026345
H         0.91921291     0.07597676    -0.55941212     0.00019265     0.00056506    -0.00117065
H         0.84593630    -0.06907828     1.86871724    -0.00130098     0.00049636    -0.00030726
H        -0.94783422     0.05630064     1.83475221    -0.00135928     0.00088286     0.00056815
H        -1.02989482     0.11474484    -0.54779451    -0.00043037     0.00041578    -0.00125679
     6
  Step:    15            Position(A)                                  Velocity(au)
C        -0.03253274     0.00615330    -0.00695662    -0.00002325    -0.00004215    -0.00013706
N        -0.04296806    -0.06721175     1.32342113     0.00022022    -0.00013506     0.00027843
H         0.92030938     0.07910369    -0.56598591     0.00020363     0.00057975    -0.00123253
H         0.83866637    -0.06635571     1.86703923    -0.00134561     0.00050088    -0.00029707
H        -0.95507937     0.06114850     1.83787642    -0.00127864     0.00089055     0.00056661
H        -1.03207631     0.11699607    -0.55471397    -0.00036269     0.00040786    -0.00127286
     6
  Step:    16            Position(A)                                  Velocity(au)
C        -0.03267651     0.00592603    -0.00773640    -0.00002945    -0.00004097    -0.00014811
N        -0.04177993    -0.06795484     1.32498009     0.00021249    -0.00013676     0.00029114
H         0.92143687     0.08230849    -0.57287310     0.00020372     0.00059277    -0.00128364
H         0.83124022    -0.06360798     1.86547285    -0.00135533     0.00050507    -0.00026532
H        -0.96179884     0.06602676     1.84094039    -0.00116694     0.00089295     0.00054640
H        -1.03385591     0.11919931    -0.56169601    -0.00028342     0.00039773    -0.00127834
     6
  Step:    17            Position(A)                                  Velocity(au)
C        -0.03285455     0.00570560    -0.00857520    -0.00003569    -0.00003960    -0.00015842
N        -0.04064591    -0.06870628     1.32660284     0.00020025    -0.00013796     0.00030127
H         0.92253572     0.08558171    -0.58001395     0.00019300     0.00060400    -0.00132364
H         0.82385481    -0.06083618     1.86413968    -0.00132841     0.00050920    -0.00021105
H        -0.96783212     0.07090698     1.84384769    -0.00102805     0.00089030     0.00050972
H        -1.03517365     0.12134263    -0.56868411    -0.00019407     0.00038549    -0.00127380
     6
  Step:    18            Position(A)                                  Velocity(au)
C        -0.03306681     0.00549299    -0.00946871    -0.00004187    -0.00003807    -0.00016788
N        -0.03959014    -0.06946347     1.32827449     0.00018379    -0.00013872     0.00030858
H         0.92354732     0.08891324    -0.58734722     0.00017181     0.00061333    -0.00135247
H         0.81671391    -0.05803980     1.86316500    -0.00126450     0.00051360    -0.00013408
H        -0.97304063     0.07576228     1.84651421    -0.00086615     0.00088299     0.00045892
H        -1.03597807     0.12341472    -0.57562513    -0.00009627     0.00037132    -0.00125999
     6
  Step:    19            Position(A)                                  Velocity(au)
C        -0.03331265     0.00528910    -0.01041200    -0.00004787    -0.00003638    -0.00017640
N        -0.03863504    -0.07022406     1.32997910     0.00016348    -0.00013909     0.00031295
H         0.92441558     0.09229237    -0.59481180     0.00014074     0.00062077    -0.00137029
H         0.81001955    -0.05521671     1.86267263    -0.00116475     0.00051859    -0.00003521
H        -0.97730895     0.08056806     1.84886885    -0.00068566     0.00087154     0.00039648
H        -1.03622693     0.12540538    -0.58247009     0.00000829     0.00035539    -0.00123778
     6
  Step:    20            Position(A)                                  Velocity(au)
C        -0.03359088     0.00509476    -0.01139973    -0.00005362    -0.00003455    -0.00018392
N        -0.03780053    -0.07098609     1.33170031     0.00013985    -0.00013915     0.00031437
H         0.92508798     0.09570874    -0.60234765     0.00010054     0.00062639    -0.00137745
H         0.80396354    -0.05236284     1.86277955    -0.00103193     0.00052450     0.00008377
H        -0.98054649     0.08530291     1.85085439    -0.00049105     0.00085657     0.00032490
H        -1.03588730     0.12730517    -0.58917493     0.00011791     0.00033788    -0.00120811
     6
  Step:    21            Position(A)                                  Velocity(au)
C        -0.03389985     0.00491070    -0.01242623    -0.00005902    -0.00003261    -0.00019039
N        -0.03710347    -0.07174798     1.33342193     0.00011350    -0.00013897     0.00031293
H         0.92551670     0.09915231    -0.60989709     0.00005214     0.00063026    -0.00137446
H         0.79871834    -0.04947257     1.86359004    -0.00087038     0.00053158     0.00022002
H        -0.98268675     0.08994889     1.85242699    -0.00028661     0.00083875     0.00024658
H        -1.03493566     0.12910575    -0.59570077     0.00023090     0.00031899    -0.00117195
     6
  Step:    22            Position(A)                                  Velocity(au)
C        -0.03423747     0.00473756    -0.01348552    -0.00006401    -0.00003056    -0.00019576
N        -0.03655713    -0.07250853     1.33512856     0.00008512    -0.00013860     0.00030881
H         0.92565923     0.10261349    -0.61740544    -0.00000345     0.00063246    -0.00136188
H         0.79442819    -0.04653915     1.86518994    -0.00068593     0.00053996     0.00036970
H        -0.98368646     0.09449183     1.85355580    -0.00007646     0.00081876     0.00016384
H        -1.03335773     0.13079988    -0.60201411     0.00034561     0.00029891    -0.00113024
     6
  Step:    23            Position(A)                                  Velocity(au)
C        -0.03460126     0.00457586    -0.01457146    -0.00006850    -0.00002842    -0.00019999
N        -0.03617066    -0.07326686     1.33680604     0.00005550    -0.00013811     0.00030226
H         0.92547888     0.10608321    -0.62482142    -0.00006516     0.00063308    -0.00134032
H         0.79120150    -0.04355537     1.86764142    -0.00048563     0.00054963     0.00052811
H        -0.98352467     0.09892141     1.85422242     0.00013542     0.00079730     0.00007888
H        -1.03114829     0.13238135    -0.60808665     0.00046041     0.00027780    -0.00108390
     6
  Step:    24            Position(A)                                  Velocity(au)
C        -0.03498837     0.00442605    -0.01567769    -0.00007245    -0.00002621    -0.00020304
N        -0.03594880    -0.07402240     1.33844179     0.00002545    -0.00013753     0.00029359
H         0.92494497     0.10955290    -0.63209713    -0.00013188     0.00063217    -0.00131032
H         0.78910506    -0.04051443     1.87097874    -0.00027736     0.00056043     0.00068989
H        -0.98220207     0.10323127     1.85442047     0.00034514     0.00077504    -0.00000612
H        -1.02831099     0.13384492    -0.61389508     0.00057369     0.00025582    -0.00103375
     6
  Step:    25            Position(A)                                  Velocity(au)
C        -0.03539557     0.00428850    -0.01679765    -0.00007576    -0.00002394    -0.00020487
N        -0.03589163    -0.07477478     1.34002499    -0.00000417    -0.00013689     0.00028311
H         0.92403295     0.11301435    -0.63918785    -0.00020245     0.00062977    -0.00127243
H         0.78816050    -0.03741085     1.87520535    -0.00006945     0.00057199     0.00084926
H        -0.97974053     0.10741896     1.85415532     0.00054883     0.00075269    -0.00008904
H        -1.02485839     0.13518620    -0.61942069     0.00068377     0.00023312    -0.00098058
     6
  Step:    26            Position(A)                                  Velocity(au)
C        -0.03581924     0.00416349    -0.01792455    -0.00007838    -0.00002163    -0.00020542
N        -0.03599454    -0.07552373     1.34154662    -0.00003251    -0.00013621     0.00027112
H         0.92272468     0.11645959    -0.64605184    -0.00027566     0.00062589    -0.00122711
H         0.78834336    -0.03424145     1.88029260     0.00012983     0.00058380     0.00100037
H        -0.97618308     0.11148598     1.85344393     0.00074255     0.00073094    -0.00016775
H        -1.02081204     0.13640157    -0.62464913     0.00078897     0.00020982    -0.00092513
     6
  Step:    27            Position(A)                                  Velocity(au)
C        -0.03625541     0.00405122    -0.01905130    -0.00008022    -0.00001929    -0.00020463
N        -0.03624830    -0.07626907     1.34299933    -0.00005875    -0.00013547     0.00025790
H         0.92100871     0.11988077    -0.65265009    -0.00035025     0.00062051    -0.00117483
H         0.78958479    -0.03100617     1.88618011     0.00031273     0.00059521     0.00113756
H        -0.97159420     0.11543790     1.85231495     0.00092230     0.00071054    -0.00024009
H        -1.01620277     0.13748812    -0.62957006     0.00088753     0.00018605    -0.00086810
     6
  Step:    28            Position(A)                                  Velocity(au)
C        -0.03669972     0.00395182    -0.02017050    -0.00008123    -0.00001693    -0.00020244
N        -0.03663936    -0.07701060     1.34437725    -0.00008213    -0.00013469     0.00024371
H         0.91888052     0.12327002    -0.65894621    -0.00042487     0.00061363    -0.00111607
H         0.79177577    -0.02770869     1.89277794     0.00047248     0.00060549     0.00125575
H        -0.96606039     0.11928449     1.85080887     0.00108395     0.00069225    -0.00030384
H        -1.01107093     0.13844362    -0.63417702     0.00097763     0.00016195    -0.00081021
     6
  Step:    29            Position(A)                                  Velocity(au)
C        -0.03714742     0.00386533    -0.02127439    -0.00008133    -0.00001457    -0.00019877
N        -0.03715024    -0.07774817     1.34567566    -0.00010198    -0.00013386     0.00022871
H         0.91634287     0.12661943    -0.66490647    -0.00049816     0.00060522    -0.00105136
H         0.79477345    -0.02435682     1.89997038     0.00060362     0.00061388     0.00135069
H        -0.95969062     0.12303998     1.84897825     0.00122338     0.00067691    -0.00035683
H        -1.00546669     0.13926655    -0.63846750     0.00105747     0.00013764    -0.00075217
     6
  Step:    30            Position(A)                                  Velocity(au)
C        -0.03759348     0.00379170    -0.02235486    -0.00008048    -0.00001223    -0.00019359
N        -0.03776010    -0.07848159     1.34689069    -0.00011777    -0.00013298     0.00021305
H         0.91340602     0.12992107    -0.67050005    -0.00056871     0.00059532    -0.00098131
H         0.79840920    -0.02096249     1.90762115     0.00070229     0.00061966     0.00141920
H        -0.95261620     0.12672331     1.84688752     0.00133662     0.00066539    -0.00039695
H        -0.99945003     0.13995616    -0.64244295     0.00112526     0.00011328    -0.00069477
     6
  Step:    31            Position(A)                                  Velocity(au)
C        -0.03803257     0.00373078    -0.02340357    -0.00007864    -0.00000994    -0.00018686
N        -0.03844550    -0.07921076     1.34801897    -0.00012908    -0.00013208     0.00019682
H         0.91008784     0.13316715    -0.67569952    -0.00063512     0.00058398    -0.00090663
H         0.80249770    -0.01754147     1.91557957     0.00076634     0.00062218     0.00145932
H        -0.94498961     0.13035831     1.84461239     0.00142010     0.00065858    -0.00042228
H        -0.99309041     0.14051250    -0.64610902     0.00117938     0.00008905    -0.00063880
     6
  Step:    32            Position(A)                                  Velocity(au)
C        -0.03845921     0.00368227    -0.02441200    -0.00007579    -0.00000771    -0.00017858
N        -0.03918113    -0.07993567     1.34905748    -0.00013567    -0.00013118     0.00018005
H         0.90641377     0.13635029    -0.68048136    -0.00069608     0.00057133    -0.00082816
H         0.80684598    -0.01411275     1.92368715     0.00079531     0.00062097     0.00147037
H        -0.93698196     0.13397373     1.84223853     0.00147084     0.00065739    -0.00043124
H        -0.98646593     0.14093652    -0.64947565     0.00121845     0.00006511    -0.00058508
     6
  Step:    33            Position(A)                                  Velocity(au)
C        -0.03886789     0.00364580    -0.02537168    -0.00007196    -0.00000557    -0.00016879
N        -0.03994077    -0.08065653     1.35000335    -0.00013750    -0.00013034     0.00016280
H         0.90241638     0.13946375    -0.68482666    -0.00075035     0.00055755    -0.00074686
H         0.81126277    -0.01069778     1.93178452     0.00079033     0.00061572     0.00145290
H        -0.92877948     0.13760342     1.83985970     0.00148681     0.00066267    -0.00042270
H        -0.97966189     0.14123005    -0.65255713     0.00124141     0.00004162    -0.00053440
     6
  Step:    34            Position(A)                                  Velocity(au)
C        -0.03925322     0.00362085    -0.02627428    -0.00006719    -0.00000353    -0.00015754
N        -0.04069819    -0.08137378     1.35085376    -0.00013465    -0.00012960     0.00014510
H         0.89813481     0.14250196    -0.68872175    -0.00079691     0.00054291    -0.00066376
H         0.81556603    -0.00731925     1.93971766     0.00075383     0.00060635     0.00140855
H        -0.92057732     0.14128523     1.83757467     0.00146723     0.00067507    -0.00039618
H        -0.97276895     0.14139568    -0.65537196     0.00124760     0.00001871    -0.00048755
     6
  Step:    35            Position(A)                                  Velocity(au)
C        -0.03961005     0.00360679    -0.02711192    -0.00006153    -0.00000162    -0.00014496
N        -0.04142814    -0.08208813     1.35160608    -0.00012742    -0.00012903     0.00012698
H         0.89361374     0.14546079    -0.69215862    -0.00083490     0.00052775    -0.00057997
H         0.81958958    -0.00400008     1.94734345     0.00068926     0.00059294     0.00133985
H        -0.91257240     0.14506030     1.83548352     0.00141268     0.00069510    -0.00035188
H        -0.96588084     0.14143671    -0.65794259     0.00123682    -0.00000350    -0.00044518
     6
  Step:    36            Position(A)                                  Velocity(au)
C        -0.03993368     0.00360293    -0.02787726    -0.00005510     0.00000015    -0.00013116
N        -0.04210720    -0.08280061     1.35225794    -0.00011622    -0.00012868     0.00010853
H         0.88890225     0.14833790    -0.69513522    -0.00086376     0.00051243    -0.00049657
H         0.82318801    -0.00076240     1.95453405     0.00060079     0.00057577     0.00124999
H        -0.90495553     0.14897184     1.83368348     0.00132524     0.00072300    -0.00029081
H        -0.95909192     0.14135695    -0.66029491     0.00120931    -0.00002495    -0.00040787
     6
  Step:    37            Position(A)                                  Velocity(au)
C        -0.04021993     0.00360848    -0.02856375    -0.00004799     0.00000178    -0.00011630
N        -0.04271467    -0.08351250     1.35280747    -0.00010163    -0.00012859     0.00008986
H         0.88405240     0.15113304    -0.69765539    -0.00088313     0.00049736    -0.00041459
H         0.82623996     0.00237337     1.96118015     0.00049295     0.00055525     0.00114257
H        -0.89790276     0.15306350     1.83226437     0.00120844     0.00075869    -0.00021476
H        -0.95249444     0.14116053    -0.66245750     0.00116579    -0.00004562    -0.00037599
     6
  Step:    38            Position(A)                                  Velocity(au)
C        -0.04046533     0.00362265    -0.02916577    -0.00004034     0.00000326    -0.00010056
N        -0.04323315    -0.08422527     1.35325348    -0.00008428    -0.00012880     0.00007110
H         0.87911790     0.15384821    -0.69972856    -0.00089292     0.00048297    -0.00033497
H         0.82864943     0.00538925     1.96719268     0.00037031     0.00053187     0.00102130
H        -0.89156713     0.15737742     1.83130411     0.00106714     0.00080174    -0.00012624
H        -0.94617602     0.14085147    -0.66446054     0.00110736    -0.00006558    -0.00034971
     6
  Step:    39            Position(A)                                  Velocity(au)
C        -0.04066716     0.00364462    -0.02967868    -0.00003230     0.00000460    -0.00008412
N        -0.04364911    -0.08494052     1.35359571    -0.00006491    -0.00012932     0.00005242
H         0.87415279     0.15648768    -0.70136917    -0.00089319     0.00046968    -0.00025849
H         0.83034548     0.00827013     1.97250308     0.00023725     0.00050619     0.00088982
H        -0.88607158     0.16195227     1.83086481     0.00090722     0.00085140    -0.00002834
H        -0.94021732     0.14043341    -0.66633463     0.00103546    -0.00008495    -0.00032897
     6
  Step:    40            Position(A)                                  Velocity(au)
C        -0.04082356     0.00367364    -0.03009886    -0.00002400     0.00000580    -0.00006715
N        -0.04395310    -0.08565978     1.35383492    -0.00004423    -0.00013014     0.00003401
H         0.86921038     0.15905799    -0.70259582    -0.00088418     0.00045785    -0.00018578
H         0.83128108     0.01100400     1.97706279     0.00009784     0.00047874     0.00075155
H        -0.88150393     0.16682136     1.83098979     0.00073524     0.00090657     0.00007542
H        -0.93469036     0.13990920    -0.66810958     0.00095174    -0.00010390    -0.00031352
     6
  Step:    41            Position(A)                                  Velocity(au)
C        -0.04093348     0.00370902    -0.03042374    -0.00001561     0.00000690    -0.00004982
N        -0.04413987    -0.08638447     1.35397301    -0.00002299    -0.00013121     0.00001605
H         0.86434240     0.16156773    -0.70343042    -0.00086623     0.00044784    -0.00011729
H         0.83143109     0.01358198     1.98084183    -0.00004427     0.00045007     0.00060959
H        -0.87791380     0.17201098     1.83170160     0.00055803     0.00096588     0.00018127
H        -0.92965740     0.13928063    -0.66981325     0.00085796    -0.00012266    -0.00030289
     6
  Step:    42            Position(A)                                  Velocity(au)
C        -0.04099674     0.00375017    -0.03065169    -0.00000725     0.00000790    -0.00003229
N        -0.04420825    -0.08711573     1.35401302    -0.00000190    -0.00013248    -0.00000126
H         0.85959846     0.16402729    -0.70389725    -0.00083971     0.00043991    -0.00005333
H         0.83078990     0.01599808     1.98382693    -0.00018584     0.00042064     0.00046667
H        -0.87531192     0.17753900     1.83300121     0.00038235     0.00102777     0.00028543
H        -0.92517026     0.13854816    -0.67147052     0.00075596    -0.00014150    -0.00029644
     6
  Step:    43            Position(A)                                  Velocity(au)
C        -0.04101397     0.00379662    -0.03078201     0.00000091     0.00000882    -0.00001471
N        -0.04416090    -0.08785431     1.35395904     0.00001842    -0.00013386    -0.00001775
H         0.85502574     0.16644860    -0.70402208    -0.00080503     0.00043431     0.00000593
H         0.82936913     0.01824900     1.98601957    -0.00032405     0.00039088     0.00032521
H        -0.87367156     0.18341411     1.83486842     0.00021456     0.00109053     0.00038424
H        -0.92127000     0.13771067    -0.67310222     0.00064761    -0.00016072    -0.00029335
     6
  Step:    44            Position(A)                                  Velocity(au)
C        -0.04098660     0.00384803    -0.03081485     0.00000876     0.00000970     0.00000278
N        -0.04400392    -0.08860053     1.35381610     0.00003738    -0.00013528    -0.00003328
H         0.85066888     0.16884477    -0.70383150    -0.00076261     0.00043121     0.00006041
H         0.82719551     0.02033376     1.98743417    -0.00045634     0.00036115     0.00018731
H        -0.87293198     0.18963538     1.83726328     0.00006029     0.00115245     0.00047438
H        -0.91798685     0.13676540    -0.67472437     0.00053477    -0.00018063    -0.00029269
     6