|===============================================================================
|
|  DFTB+ release 20.1
|
|  Copyright (C) 2006 - 2020  DFTB+ developers group
|
|===============================================================================
|
|  When publishing results obtained with DFTB+, please cite the following
|  reference:
|
|  * DFTB+, a software package for efficient approximate density functional
|    theory based atomistic simulations, J. Chem. Phys. 152, 124101 (2020).
|    [doi: 10.1063/1.5143190]
|
|  You should also cite additional publications crediting the parametrization
|  data you use. Please consult the documentation of the SK-files for the
|  references.
|
|===============================================================================

Reading input file 'dftb_in.hsd'
Parser version: 8

--------------------------------------------------------------------------------
Reading SK-files:
Done.


Processed input in HSD format written to 'dftb_pin.hsd'

Starting initialization...
--------------------------------------------------------------------------------
OpenMP threads:              1
Chosen random seed:          507638753
Mode:                        Static calculation
Self consistent charges:     Yes
SCC-tolerance:                 0.100000E-05
Max. scc iterations:                   1000
Shell resolved Hubbard:      No
Spin polarisation:           No
Nr. of up electrons:             6.000000
Nr. of down electrons:           6.000000
Periodic boundaries:         No
Electronic solver:           Relatively robust
Maximal SCC-cycles:                    1000
Initial charges:             Set automatically (system chrg:   0.100E+01)
Included shells:             C:  s, p
                             N:  s, p
                             H:  s
Spin coupling constants:     C   1(s)-1(s):  -0.455900E-01
                             C   1(s)-2(p):  -0.293000E-01
                             C   2(p)-1(s):  -0.293000E-01
                             C   2(p)-2(p):  -0.275500E-01
                             N   1(s)-1(s):  -0.468700E-01
                             N   1(s)-2(p):  -0.317000E-01
                             N   2(p)-1(s):  -0.317000E-01
                             N   2(p)-2(p):  -0.307200E-01
                             H   1(s)-1(s):  -0.792500E-01
Range separated hybrid:      Yes
  Screening parameter omega:   0.300000E+00
  Range separated algorithm:   MatrixBased
Extra options:
                             Mulliken analysis
                             Force calculation
Force type                   original
                             Eigenvector printing


REKS Calcuation:             Yes
SSR(2,2) Calcuation:         Yes
Energy Functional:           (PPS+OSS)/2
Number of Core Orbitals:                  5
Number of Active Orbitals:                2
Number of Basis:                         12
Number of States:                         2
State-Averaging Weight:          0.500000
                                 0.500000
State of Interest:                        1
Initial Guess:               Diagonalize H0 matrix
Newton-Raphson for FON opt:  Yes
NR max. Iterations:                      50
Level Shifting:              Yes
Shift Value:                     0.300000
W Scale Factor:              C  =    3.000000
                             N  =    3.000000
                             H  =    3.000000
Transition Dipole:           No
Gradient of Microstate:      No
CP-REKS Solver:              Preconditioned Conjugate-Gradient
CG max. Iterations:                     100
CG Tolerance:                  0.100000E-07
Memory for A and Hxc:        Direct Updating Without Saving
Non-Adiabatic Coupling:      Yes

--------------------------------------------------------------------------------

***  Geometry step: 0

  iSCC       reks energy        Diff energy         x_a       SCC error   
    1       -6.2608205619       0.0000000000     0.999032    1.17824402
    2       -6.2746409621      -0.0138204002     0.999629    0.10913520
    3       -6.2788345504      -0.0041935883     0.999801    0.05095112
    4       -6.2808766083      -0.0020420579     0.999871    0.02585068
    5       -6.2820841746      -0.0012075663     0.999905    0.01379280
    6       -6.2828861385      -0.0008019639     0.999923    0.00802547
    7       -6.2834492974      -0.0005631589     0.999934    0.00708345
    8       -6.2838516272      -0.0004023298     0.999941    0.00606600
    9       -6.2841386577      -0.0002870305     0.999946    0.00510241
   10       -6.2843416952      -0.0002030375     0.999949    0.00440489
   11       -6.2844838694      -0.0001421742     0.999951    0.00391596
   12       -6.2845824941      -0.0000986247     0.999952    0.00343362
   13       -6.2846503789      -0.0000678848     0.999953    0.00297843
   14       -6.2846968250      -0.0000464461     0.999954    0.00256168
   15       -6.2847284634      -0.0000316384     0.999955    0.00218829
   16       -6.2847499491      -0.0000214857     0.999955    0.00185901
   17       -6.2847645105      -0.0000145613     0.999955    0.00157210
   18       -6.2847743665      -0.0000098560     0.999955    0.00132442
   19       -6.2847810327      -0.0000066663     0.999955    0.00111218
   20       -6.2847855398      -0.0000045071     0.999955    0.00093141
   21       -6.2847885867      -0.0000030469     0.999956    0.00077819
   22       -6.2847906465      -0.0000020597     0.999956    0.00064886
   23       -6.2847920390      -0.0000013925     0.999956    0.00054008
   24       -6.2847929805      -0.0000009415     0.999956    0.00044885
   25       -6.2847936171      -0.0000006366     0.999956    0.00037254
   26       -6.2847940476      -0.0000004305     0.999956    0.00030885
   27       -6.2847943388      -0.0000002912     0.999956    0.00025578
   28       -6.2847945358      -0.0000001969     0.999956    0.00021165
   29       -6.2847946690      -0.0000001332     0.999956    0.00017500
   30       -6.2847947591      -0.0000000901     0.999956    0.00014460
   31       -6.2847948200      -0.0000000610     0.999956    0.00011941
   32       -6.2847948613      -0.0000000412     0.999956    0.00009855
   33       -6.2847948892      -0.0000000279     0.999956    0.00008131
   34       -6.2847949080      -0.0000000189     0.999956    0.00006705
   35       -6.2847949208      -0.0000000128     0.999956    0.00005528
   36       -6.2847949294      -0.0000000086     0.999956    0.00004555
   37       -6.2847949353      -0.0000000058     0.999956    0.00003753
   38       -6.2847949392      -0.0000000040     0.999956    0.00003092
   39       -6.2847949419      -0.0000000027     0.999956    0.00002546
   40       -6.2847949437      -0.0000000018     0.999956    0.00002097
   41       -6.2847949449      -0.0000000012     0.999956    0.00001726
   42       -6.2847949457      -0.0000000008     0.999956    0.00001421
   43       -6.2847949463      -0.0000000006     0.999956    0.00001170
   44       -6.2847949467      -0.0000000004     0.999956    0.00000963
   45       -6.2847949469      -0.0000000003     0.999956    0.00000792
   46       -6.2847949471      -0.0000000002     0.999956    0.00000652
   47       -6.2847949472      -0.0000000001     0.999956    0.00000536
   48       -6.2847949473      -0.0000000001     0.999956    0.00000441
   49       -6.2847949474      -0.0000000001     0.999956    0.00000363
   50       -6.2847949474      -0.0000000000     0.999956    0.00000299
   51       -6.2847949474      -0.0000000000     0.999956    0.00000246
   52       -6.2847949474      -0.0000000000     0.999956    0.00000202
   53       -6.2847949474      -0.0000000000     0.999956    0.00000166
   54       -6.2847949475      -0.0000000000     0.999956    0.00000137
   55       -6.2847949475      -0.0000000000     0.999956    0.00000112
   56       -6.2847949475      -0.0000000000     0.999956    0.00000093
  
--------------------------------------------------
 Final SA-REKS(2,2) energy:      -6.28479495
  
 State     Energy      FON(1)    FON(2)   Spin
  PPS   -6.41201158   1.999911  0.000089  0.00
  OSS   -6.15757831   1.000000  1.000000  0.00
 Trip   -6.23818418   1.000000  1.000000  1.00
--------------------------------------------------

 Lagrangian Wab:   0.00528149  0.00528129

--------------------------------------------------
 SSR: 2SI-2SA-REKS(2,2) Hamiltonian matrix
               PPS           OSS
   PPS    -6.41201158    0.00741917
   OSS     0.00741917   -6.15757831
--------------------------------------------------

----------------------------------------------------------------
 SSR: 2SI-2SA-REKS(2,2) states
                    E_n       C_{PPS}    C_{OSS}
 SSR state  1   -6.41222774  -0.999576   0.029122
 SSR state  2   -6.15736215  -0.029122  -0.999576
----------------------------------------------------------------

 unrelaxed SSR FONs for S0:  1.999063  0.000937

Total Energy:                       -6.4122277407 H         -174.4856 eV
Extrapolated to 0:                  -6.4122277407 H         -174.4856 eV

----------------------------------------------------------------------------------
 Solving CP-REKS equation for  1 state vector...
----------------------------------------------------------------------------------
  CG solver: Constructing Y initial guess
  CG solver: Iteration    1    eps =    0.000090720716
  CG solver: Iteration    2    eps =    0.000045249091
  CG solver: Iteration    3    eps =    0.000002251061
  CG solver: Iteration    4    eps =    0.000000604244
  CG solver: Iteration    5    eps =    0.000000008812
  Convergence reached in CG solver after    5 iterations
  CG solver: Calculating converged R, Z, Q2 matrix
----------------------------------------------------------------------------------

----------------------------------------------------------------------------------
 Solving CP-REKS equation for SI between  1 and  2 state vectors...
----------------------------------------------------------------------------------
  CG solver: Constructing Y initial guess
  CG solver: Iteration    1    eps =    0.001898973168
  CG solver: Iteration    2    eps =    0.002436122445
  CG solver: Iteration    3    eps =    0.000401855240
  CG solver: Iteration    4    eps =    0.000004594183
  CG solver: Iteration    5    eps =    0.000000637633
  CG solver: Iteration    6    eps =    0.000000014277
  CG solver: Iteration    7    eps =    0.000000000742
  Convergence reached in CG solver after    7 iterations
  CG solver: Calculating converged R, Z, Q2 matrix
----------------------------------------------------------------------------------

--------------------------------------------------
 Gradient Information
--------------------------------------------------
           1 st state (SSR)
    -0.00238044     0.00659341    -0.00041348
     0.00625271     0.00313186     0.00473730
     0.01215592    -0.00621451     0.00596421
     0.00967250     0.00106004    -0.00689232
    -0.01396292    -0.00752668    -0.00479164
    -0.01173777     0.00295587     0.00139591

           2 st state (SSR)
     0.00371037    -0.00606182     0.10496320
    -0.00633368     0.01267127    -0.11700691
    -0.00946339     0.00594957     0.02190807
    -0.00756997    -0.00634830    -0.01526196
     0.00987272     0.00002792    -0.01163220
     0.00978395    -0.00623863     0.01702980
--------------------------------------------------
 Coupling Information
--------------------------------------------------
 between  1 and  2 states
--------------------------------------------------
 g vector - difference gradient
    -0.00312728     0.00632974    -0.05352325
     0.00639250    -0.00485547     0.06153794
     0.01147588    -0.00596468    -0.00795486
     0.00928692     0.00368049     0.00423445
    -0.01265622    -0.00369265     0.00346901
    -0.01137180     0.00450256    -0.00776329

 h vector - derivative coupling
    -0.00131513    -0.00014800    -0.01278114
     0.00151948    -0.00133160     0.00964360
     0.01110874     0.00218951     0.00052490
     0.01116338    -0.00051394     0.00072902
    -0.01231409     0.00156157     0.00073585
    -0.01016239    -0.00175754     0.00114776

 G vector - GDV
    -0.00304541     0.00632762    -0.05268834
     0.00629319    -0.00476970     0.06087211
     0.01080966    -0.00608204    -0.00797193
     0.00862124     0.00370417     0.00418482
    -0.01191782    -0.00377730     0.00342028
    -0.01076086     0.00459725    -0.00781694

 H vector - DCV - non-adiabatic coupling
    -0.00586572     0.00086622    -0.06229007
     0.00741205    -0.00632503     0.05183124
     0.04613424     0.00721373     0.00023887
     0.04584822    -0.00117235     0.00382286
    -0.05112520     0.00527312     0.00367477
    -0.04240360    -0.00585569     0.00272233
--------------------------------------------------


--------------------------------------------------------------------------------
DFTB+ running times                          cpu [s]             wall clock [s]
--------------------------------------------------------------------------------
SCC                                    +     0.04  ( 75.4%)      0.05  ( 63.9%)
Post-SCC processing                    +     0.01  ( 19.4%)      0.01  ( 18.1%)
  Force calculation                          0.01  ( 18.9%)      0.01  ( 13.9%)
--------------------------------------------------------------------------------
Missing                                +     0.00  (  5.1%)      0.01  ( 18.1%)
Total                                  =     0.05  (100.0%)      0.07  (100.0%)
--------------------------------------------------------------------------------
