    14
  Step:   600            Position(A)                                  Velocity(au)
C        -5.01607758     1.08825215     0.47745132     0.00045965     0.00062211    -0.00051420
C        -4.42068970    -0.12638028     0.26032475     0.00050131    -0.00014369     0.00078043
H        -4.81018450     1.91678651    -0.24501668    -0.00115546    -0.00015438    -0.00111815
H        -5.71643242     1.16123367     1.18125716    -0.00105936     0.00162401    -0.00024003
H        -4.73584596    -1.14291689     0.64712025     0.00261369     0.00132276     0.00043654
C        -3.48954601    -0.37558791    -0.84855816     0.00030926    -0.00011463     0.00047394
C        -2.26886317     0.25371716    -1.06348032     0.00002069     0.00006256    -0.00013342
H        -3.80541974    -0.90723307    -1.92812499     0.00131781     0.00215714     0.00161673
H        -1.81285042     0.22164851    -2.05999754    -0.00075841    -0.00128725     0.00038233
C        -1.81461703     1.23117493     0.02715755    -0.00080786     0.00042047    -0.00011815
H        -1.28311215     2.10178884    -0.28372881     0.00003294     0.00176996     0.00219850
N        -2.20089329     0.93475003     1.28177100    -0.00062381    -0.00070493    -0.00055874
H        -1.90497516     1.55423355     1.98667827    -0.00066852    -0.00372882     0.00027831
H        -2.63076717     0.06543191     1.57256583     0.00258979    -0.00199835    -0.00161196
