|===============================================================================
|
|  DFTB+ release 20.1
|
|  Copyright (C) 2006 - 2020  DFTB+ developers group
|
|===============================================================================
|
|  When publishing results obtained with DFTB+, please cite the following
|  reference:
|
|  * DFTB+, a software package for efficient approximate density functional
|    theory based atomistic simulations, J. Chem. Phys. 152, 124101 (2020).
|    [doi: 10.1063/1.5143190]
|
|  You should also cite additional publications crediting the parametrization
|  data you use. Please consult the documentation of the SK-files for the
|  references.
|
|===============================================================================

Reading input file 'dftb_in.hsd'
Parser version: 8

--------------------------------------------------------------------------------
Reading SK-files:
Done.


Processed input in HSD format written to 'dftb_pin.hsd'

Starting initialization...
--------------------------------------------------------------------------------
OpenMP threads:              1
Chosen random seed:          507936180
Mode:                        Static calculation
Self consistent charges:     Yes
SCC-tolerance:                 0.100000E-05
Max. scc iterations:                   1000
Shell resolved Hubbard:      No
Spin polarisation:           No
Nr. of up electrons:             6.000000
Nr. of down electrons:           6.000000
Periodic boundaries:         No
Electronic solver:           Relatively robust
Maximal SCC-cycles:                    1000
Initial charges:             Set automatically (system chrg:   0.100E+01)
Included shells:             C:  s, p
                             N:  s, p
                             H:  s
Spin coupling constants:     C   1(s)-1(s):  -0.455900E-01
                             C   1(s)-2(p):  -0.293000E-01
                             C   2(p)-1(s):  -0.293000E-01
                             C   2(p)-2(p):  -0.275500E-01
                             N   1(s)-1(s):  -0.468700E-01
                             N   1(s)-2(p):  -0.317000E-01
                             N   2(p)-1(s):  -0.317000E-01
                             N   2(p)-2(p):  -0.307200E-01
                             H   1(s)-1(s):  -0.792500E-01
Range separated hybrid:      Yes
  Screening parameter omega:   0.300000E+00
  Range separated algorithm:   MatrixBased
Extra options:
                             Mulliken analysis
                             Force calculation
Force type                   original
                             Eigenvector printing


REKS Calcuation:             Yes
SSR(2,2) Calcuation:         Yes
Energy Functional:           (PPS+OSS)/2
Number of Core Orbitals:                  5
Number of Active Orbitals:                2
Number of Basis:                         12
Number of States:                         2
State-Averaging Weight:          0.500000
                                 0.500000
State of Interest:                        1
Initial Guess:               Diagonalize H0 matrix
Newton-Raphson for FON opt:  Yes
NR max. Iterations:                      50
Level Shifting:              Yes
Shift Value:                     0.300000
W Scale Factor:              C  =    3.000000
                             N  =    3.000000
                             H  =    3.000000
Transition Dipole:           No
Gradient of Microstate:      No
CP-REKS Solver:              Preconditioned Conjugate-Gradient
CG max. Iterations:                     100
CG Tolerance:                  0.100000E-07
Memory for A and Hxc:        Direct Updating Without Saving
Non-Adiabatic Coupling:      Yes

--------------------------------------------------------------------------------

***  Geometry step: 0

  iSCC       reks energy        Diff energy         x_a       SCC error   
    1       -6.2602232010       0.0000000000     0.999355    1.18362493
    2       -6.2736030196      -0.0133798186     0.999741    0.10280083
    3       -6.2778878161      -0.0042847965     0.999859    0.04604099
    4       -6.2800905591      -0.0022027430     0.999909    0.02266095
    5       -6.2814046943      -0.0013141352     0.999933    0.01147384
    6       -6.2822395274      -0.0008348331     0.999946    0.00765510
    7       -6.2827795798      -0.0005400524     0.999954    0.00680559
    8       -6.2831279993      -0.0003484195     0.999959    0.00580422
    9       -6.2833507014      -0.0002227021     0.999962    0.00481153
   10       -6.2834917263      -0.0001410250     0.999963    0.00390812
   11       -6.2835804163      -0.0000886900     0.999965    0.00312740
   12       -6.2836359733      -0.0000555570     0.999965    0.00254824
   13       -6.2836707297      -0.0000347564     0.999966    0.00212707
   14       -6.2836924894      -0.0000217598     0.999966    0.00176604
   15       -6.2837061421      -0.0000136527     0.999967    0.00146004
   16       -6.2837147344      -0.0000085922     0.999967    0.00120283
   17       -6.2837201606      -0.0000054262     0.999967    0.00098802
   18       -6.2837235996      -0.0000034390     0.999967    0.00080953
   19       -6.2837257866      -0.0000021870     0.999967    0.00066184
   20       -6.2837271817      -0.0000013952     0.999967    0.00054008
   21       -6.2837280742      -0.0000008925     0.999967    0.00043999
   22       -6.2837286465      -0.0000005723     0.999967    0.00035793
   23       -6.2837290143      -0.0000003678     0.999967    0.00029081
   24       -6.2837292510      -0.0000002367     0.999967    0.00023601
   25       -6.2837294036      -0.0000001526     0.999967    0.00019135
   26       -6.2837295021      -0.0000000985     0.999967    0.00015501
   27       -6.2837295657      -0.0000000636     0.999967    0.00012548
   28       -6.2837296068      -0.0000000411     0.999967    0.00010151
   29       -6.2837296334      -0.0000000266     0.999967    0.00008222
   30       -6.2837296506      -0.0000000172     0.999967    0.00006672
   31       -6.2837296617      -0.0000000111     0.999967    0.00005409
   32       -6.2837296689      -0.0000000072     0.999967    0.00004381
   33       -6.2837296736      -0.0000000047     0.999967    0.00003546
   34       -6.2837296766      -0.0000000030     0.999967    0.00002868
   35       -6.2837296786      -0.0000000020     0.999967    0.00002319
   36       -6.2837296798      -0.0000000013     0.999967    0.00001874
   37       -6.2837296807      -0.0000000008     0.999967    0.00001513
   38       -6.2837296812      -0.0000000005     0.999967    0.00001222
   39       -6.2837296815      -0.0000000003     0.999967    0.00000986
   40       -6.2837296818      -0.0000000002     0.999967    0.00000796
   41       -6.2837296819      -0.0000000001     0.999967    0.00000642
   42       -6.2837296820      -0.0000000001     0.999967    0.00000518
   43       -6.2837296821      -0.0000000001     0.999967    0.00000417
   44       -6.2837296821      -0.0000000000     0.999967    0.00000336
   45       -6.2837296821      -0.0000000000     0.999967    0.00000271
   46       -6.2837296822      -0.0000000000     0.999967    0.00000219
   47       -6.2837296822      -0.0000000000     0.999967    0.00000176
   48       -6.2837296822      -0.0000000000     0.999967    0.00000142
   49       -6.2837296822      -0.0000000000     0.999967    0.00000114
   50       -6.2837296822      -0.0000000000     0.999967    0.00000092
  
--------------------------------------------------
 Final SA-REKS(2,2) energy:      -6.28372968
  
 State     Energy      FON(1)    FON(2)   Spin
  PPS   -6.41337465   1.999934  0.000066  0.00
  OSS   -6.15408471   1.000000  1.000000  0.00
 Trip   -6.23343458   1.000000  1.000000  1.00
--------------------------------------------------

 Lagrangian Wab:   0.00416807  0.00416792

--------------------------------------------------
 SSR: 2SI-2SA-REKS(2,2) Hamiltonian matrix
               PPS           OSS
   PPS    -6.41337465    0.00586050
   OSS     0.00586050   -6.15408471
--------------------------------------------------

----------------------------------------------------------------
 SSR: 2SI-2SA-REKS(2,2) states
                    E_n       C_{PPS}    C_{OSS}
 SSR state  1   -6.41350704  -0.999745   0.022585
 SSR state  2   -6.15395232  -0.022585  -0.999745
----------------------------------------------------------------

 unrelaxed SSR FONs for S0:  1.999424  0.000576

Total Energy:                       -6.4135070438 H         -174.5204 eV
Extrapolated to 0:                  -6.4135070438 H         -174.5204 eV

----------------------------------------------------------------------------------
 Solving CP-REKS equation for  1 state vector...
----------------------------------------------------------------------------------
  CG solver: Constructing Y initial guess
  CG solver: Iteration    1    eps =    0.000074829975
  CG solver: Iteration    2    eps =    0.000021561694
  CG solver: Iteration    3    eps =    0.000000758793
  CG solver: Iteration    4    eps =    0.000000276381
  CG solver: Iteration    5    eps =    0.000000009307
  Convergence reached in CG solver after    5 iterations
  CG solver: Calculating converged R, Z, Q2 matrix
----------------------------------------------------------------------------------

----------------------------------------------------------------------------------
 Solving CP-REKS equation for SI between  1 and  2 state vectors...
----------------------------------------------------------------------------------
  CG solver: Constructing Y initial guess
  CG solver: Iteration    1    eps =    0.001203483262
  CG solver: Iteration    2    eps =    0.001068567685
  CG solver: Iteration    3    eps =    0.000269184424
  CG solver: Iteration    4    eps =    0.000003010278
  CG solver: Iteration    5    eps =    0.000000400710
  CG solver: Iteration    6    eps =    0.000000006733
  Convergence reached in CG solver after    6 iterations
  CG solver: Calculating converged R, Z, Q2 matrix
----------------------------------------------------------------------------------

--------------------------------------------------
 Gradient Information
--------------------------------------------------
           1 st state (SSR)
     0.00068244    -0.01237503     0.01904192
    -0.00049486    -0.00061869    -0.02006249
     0.01036310    -0.00355063    -0.00313612
     0.01048558     0.01070974     0.00081786
    -0.01005918    -0.00067236    -0.00472394
    -0.01097709     0.00650698     0.00806278

           2 st state (SSR)
    -0.00311617    -0.00403930     0.12974531
     0.00259464     0.00150925    -0.14719209
    -0.00830158     0.00304855     0.01466651
    -0.00704274     0.00316849    -0.00761941
     0.00795068     0.00669163    -0.01216497
     0.00791517    -0.01037861     0.02256465
--------------------------------------------------
 Coupling Information
--------------------------------------------------
 between  1 and  2 states
--------------------------------------------------
 g vector - difference gradient
     0.00198680    -0.00410666    -0.05566677
    -0.00154117    -0.00110116     0.06383397
     0.00968818    -0.00328566    -0.00888382
     0.00919723     0.00373360     0.00425722
    -0.00944104    -0.00364217     0.00373505
    -0.00988998     0.00840205    -0.00727565

 h vector - derivative coupling
     0.00189250     0.00144813    -0.00571944
     0.00011399    -0.00079865     0.00451860
     0.00766090     0.00038263     0.00058819
     0.00938223    -0.00090421     0.00075826
    -0.00944428     0.00096423     0.00023737
    -0.00960534    -0.00109213    -0.00038298

 G vector - GDV
     0.00189931    -0.00416786    -0.05535170
    -0.00154475    -0.00106397     0.06356480
     0.00933234    -0.00329959    -0.00890131
     0.00876416     0.00377063     0.00421863
    -0.00900493    -0.00368200     0.00372052
    -0.00944613     0.00844279    -0.00725094

 H vector - DCV - non-adiabatic coupling
     0.00762955     0.00485909    -0.03169816
     0.00017060    -0.00326543     0.02849730
     0.03117100     0.00090101     0.00071822
     0.03771071    -0.00283055     0.00365908
    -0.03799192     0.00307747     0.00156344
    -0.03868994    -0.00274159    -0.00273987
--------------------------------------------------


--------------------------------------------------------------------------------
DFTB+ running times                          cpu [s]             wall clock [s]
--------------------------------------------------------------------------------
SCC                                    +     0.03  ( 72.9%)      0.04  ( 67.9%)
Post-SCC processing                    +     0.01  ( 20.0%)      0.01  ( 19.6%)
--------------------------------------------------------------------------------
Missing                                +     0.00  (  7.1%)      0.01  ( 12.5%)
Total                                  =     0.05  (100.0%)      0.06  (100.0%)
--------------------------------------------------------------------------------
