     6
  Step:     0            Position(A)                                  Velocity(au)
C        -0.04366372     0.00644927     0.03626544     0.00012273     0.00004010     0.00022798
N        -0.03652525    -0.05338701     1.27822907    -0.00003183     0.00007099    -0.00025053
H         0.92876115     0.02775816    -0.48697800     0.00009278    -0.00052163    -0.00019126
H         0.78780473    -0.11235173     1.82327202    -0.00028811    -0.00021890     0.00027875
H        -0.94866494    -0.03208211     1.91312497     0.00001427    -0.00056380     0.00068939
H        -0.95297162     0.11193263    -0.55223919    -0.00083911    -0.00016003    -0.00001199
     6
  Step:     1            Position(A)                                  Velocity(au)
C        -0.04299336     0.00667709     0.03726454     0.00012210     0.00004340     0.00013572
N        -0.03677406    -0.05300670     1.27710832    -0.00005915     0.00006809    -0.00015799
H         0.92940440     0.02492973    -0.48825650     0.00014013    -0.00051348    -0.00027557
H         0.78672905    -0.11359025     1.82518642    -0.00010750    -0.00023421     0.00041957
H        -0.94800205    -0.03517734     1.91646801     0.00022947    -0.00056843     0.00053095
H        -0.95773279     0.11109510    -0.55254888    -0.00089515    -0.00014727    -0.00009656
     6
  Step:     2            Position(A)                                  Velocity(au)
C        -0.04232881     0.00692377     0.03774921     0.00012092     0.00004706     0.00004048
N        -0.03717191    -0.05264259     1.27650174    -0.00008626     0.00006521    -0.00006308
H         0.93029321     0.02214437    -0.48999081     0.00018260    -0.00050694    -0.00035853
H         0.78662945    -0.11491232     1.82785916     0.00006670    -0.00024978     0.00055550
H        -0.94615612    -0.03829669     1.91892982     0.00044618    -0.00057380     0.00036924
H        -0.96275820     0.11032251    -0.55329483    -0.00093775    -0.00013654    -0.00017195
     6
  Step:     3            Position(A)                                  Velocity(au)
C        -0.04167272     0.00719111     0.03770667     0.00011931     0.00005103    -0.00005682
N        -0.03771611    -0.05229449     1.27641937    -0.00011270     0.00006236     0.00003350
H         0.93139866     0.01939321    -0.49217216     0.00021957    -0.00050195    -0.00043995
H         0.78745747    -0.11631825     1.83125334     0.00023050    -0.00026524     0.00068345
H        -0.94312911    -0.04144408     1.92050069     0.00066149    -0.00057984     0.00020658
H        -0.96797443     0.10960390    -0.55442679    -0.00096711    -0.00012773    -0.00023848
     6
  Step:     4            Position(A)                                  Velocity(au)
C        -0.04102706     0.00748056     0.03712928     0.00011734     0.00005521    -0.00015514
N        -0.03840160    -0.05196215     1.27686724    -0.00013800     0.00005954     0.00013089
H         0.93268889     0.01666772    -0.49479097     0.00025043    -0.00049824    -0.00051946
H         0.78914440    -0.11780631     1.83531602     0.00038026    -0.00028011     0.00080026
H        -0.93893883    -0.04462314     1.92118379     0.00087194    -0.00058626     0.00004545
H        -0.97331005     0.10892893    -0.55589686    -0.00098322    -0.00012066    -0.00029649
     6
  Step:     5            Position(A)                                  Velocity(au)
C        -0.04039338     0.00779309     0.03601524     0.00011504     0.00005949    -0.00025313
N        -0.03922069    -0.05164539     1.27784647    -0.00016156     0.00005670     0.00022793
H         0.93412904     0.01396096    -0.49783578     0.00027450    -0.00049532    -0.00059637
H         0.79160336    -0.11937223     1.83997845     0.00051249    -0.00029378     0.00090271
H        -0.93362247    -0.04783601     1.92099618     0.00107301    -0.00059256    -0.00011117
H        -0.97869430     0.10828831    -0.55765941    -0.00098580    -0.00011513    -0.00034618
     6
  Step:     6            Position(A)                                  Velocity(au)
C        -0.03977309     0.00812901     0.03437012     0.00011239     0.00006370    -0.00034906
N        -0.04016261    -0.05134415     1.27935168    -0.00018269     0.00005381     0.00032300
H         0.93568098     0.01126863    -0.50129150     0.00029107    -0.00049253    -0.00066956
H         0.79473068    -0.12100853     1.84515578     0.00062390    -0.00030554     0.00098750
H        -0.92724279    -0.05108220     1.91997204     0.00125875    -0.00059804    -0.00025941
H        -0.98405543     0.10767402    -0.55967027    -0.00097435    -0.00011085    -0.00038755
     6
  Step:     7            Position(A)                                  Velocity(au)
C        -0.03916776     0.00848776     0.03220882     0.00010934     0.00006766    -0.00044074
N        -0.04121283    -0.05105855     1.28136869    -0.00020056     0.00005086     0.00041400
H         0.93730307     0.00859009    -0.50513717     0.00029942    -0.00048904    -0.00073748
H         0.79840683    -0.12270405     1.85074686     0.00071138    -0.00031460     0.00105133
H        -0.91989614    -0.05435745     1.91816733     0.00142164    -0.00060181    -0.00039446
H        -0.98931936     0.10707952    -0.56188555    -0.00094830    -0.00010753    -0.00042043
     6
  Step:     8            Position(A)                                  Velocity(au)
C        -0.03857925     0.00886776     0.02955798     0.00010582     0.00007115    -0.00052558
N        -0.04235242    -0.05078890     1.28387177    -0.00021429     0.00004779     0.00049832
H         0.93895015     0.00592922    -0.50934349     0.00029896    -0.00048395    -0.00079819
H         0.80249763    -0.12444343     1.85663446     0.00077225    -0.00032015     0.00109124
H        -0.91172098    -0.05765293     1.91566528     0.00155285    -0.00060296    -0.00051050
H        -0.99440916     0.10649998    -0.56426063    -0.00090722    -0.00010484    -0.00044452
     6
  Step:     9            Position(A)                                  Velocity(au)
C        -0.03800989     0.00926621     0.02645809     0.00010175     0.00007392    -0.00060069
N        -0.04355753    -0.05053565     1.28682117    -0.00022294     0.00004461     0.00057303
H         0.94057418     0.00329486    -0.51387075     0.00028930    -0.00047635    -0.00084949
H         0.80685658    -0.12620704     1.86268695     0.00080460    -0.00032142     0.00110492
H        -0.90290523    -0.06095485     1.91258156     0.00164280    -0.00060056    -0.00060114
H        -0.99924589     0.10593234    -0.56674938    -0.00085111    -0.00010246    -0.00045950
     6
  Step:    10            Position(A)                                  Velocity(au)
C        -0.03746250     0.00967912     0.02296487     0.00009706     0.00007578    -0.00066323
N        -0.04479937    -0.05029928     1.29016136    -0.00022570     0.00004132     0.00063516
H         0.94212552     0.00070087    -0.51866743     0.00027049    -0.00046545    -0.00088923
H         0.81132885    -0.12797128     1.86876196     0.00080765    -0.00031782     0.00109117
H        -0.89368969    -0.06424466     1.90906720     0.00168240    -0.00059393    -0.00066008
H        -1.00375086     0.10537541    -0.56930407    -0.00078068    -0.00010005    -0.00046520
     6
  Step:    11            Position(A)                                  Velocity(au)
C        -0.03694023     0.01010132     0.01914898     0.00009175     0.00007654    -0.00071079
N        -0.04604490    -0.05008023     1.29382098    -0.00022204     0.00003798     0.00068212
H         0.94355516    -0.00183464    -0.52367048     0.00024309    -0.00045075    -0.00091567
H         0.81575724    -0.12970956     1.87471223     0.00078213    -0.00030907     0.00105038
H        -0.88436434    -0.06750020     1.90530715     0.00166457    -0.00058272    -0.00068211
H        -1.00784941     0.10482979    -0.57187611    -0.00069758    -0.00009733    -0.00046177
     6
  Step:    12            Position(A)                                  Velocity(au)
C        -0.03644642     0.01052673     0.01509363     0.00008588     0.00007613    -0.00074186
N        -0.04725827    -0.04987869     1.29771514    -0.00021183     0.00003465     0.00071223
H         0.94481754    -0.00429074    -0.52880751     0.00020826    -0.00043217    -0.00092795
H         0.81999011    -0.13139391     1.88039384     0.00073057    -0.00029530     0.00098480
H        -0.87525628    -0.07069769     1.90151348     0.00158596    -0.00056716    -0.00066426
H        -1.01147584     0.10429759    -0.57441770    -0.00060445    -0.00009411    -0.00044986
     6
  Step:    13            Position(A)                                  Velocity(au)
C        -0.03598410     0.01094890     0.01088958     0.00007958     0.00007459    -0.00075636
N        -0.04840332    -0.04969443     1.30175046    -0.00019551     0.00003145     0.00072524
H         0.94587381    -0.00664613    -0.53400165     0.00016771    -0.00041019    -0.00092656
H         0.82389089    -0.13299721     1.88567636     0.00065733    -0.00027714     0.00089873
H        -0.86670729    -0.07381462     1.89791166     0.00144835    -0.00054816    -0.00060673
H        -1.01457892     0.10378198    -0.57688455    -0.00050486    -0.00009033    -0.00043077
     6
  Step:    14            Position(A)                                  Velocity(au)
C        -0.03555560     0.01136160     0.00662739     0.00007310     0.00007209    -0.00075594
N        -0.04944668    -0.04952668     1.30583305    -0.00017407     0.00002849     0.00072271
H         0.94669482    -0.00888213    -0.53917887     0.00012351    -0.00038590    -0.00091367
H         0.82734780    -0.13449603     1.89045362     0.00056825    -0.00025573     0.00079815
H        -0.85904441    -0.07683343     1.89472212     0.00125900    -0.00052734    -0.00051322
H        -1.01712691     0.10328649    -0.57923943    -0.00040292    -0.00008605    -0.00040646
     6
  Step:    15            Position(A)                                  Velocity(au)
C        -0.03516198     0.01175965     0.00238806     0.00006673     0.00006894    -0.00074384
N        -0.05036096    -0.04937398     1.30987830    -0.00014892     0.00002592     0.00070784
H         0.94726286    -0.01098609    -0.54427708     0.00007770    -0.00036086    -0.00089295
H         0.83028154    -0.13587318     1.89465255     0.00046974    -0.00023251     0.00068984
H        -0.85254816    -0.07974525     1.89213986     0.00102942    -0.00050689    -0.00039025
H        -1.01911032     0.10281425    -0.58145573    -0.00030258    -0.00008147    -0.00037937
     6
  Step:    16            Position(A)                                  Velocity(au)
C        -0.03480270     0.01213951    -0.00176555     0.00006075     0.00006550    -0.00072421
N        -0.05112698    -0.04923422     1.31381981    -0.00012156     0.00002383     0.00068479
H         0.94757151    -0.01295388    -0.54925432     0.00003190    -0.00033676    -0.00086888
H         0.83264806    -0.13711954     1.89823725     0.00036766    -0.00020898     0.00058010
H        -0.84742910    -0.08255280     1.89031877     0.00077262    -0.00048912    -0.00024562
H        -1.02054100     0.10236722    -0.58352001    -0.00020682    -0.00007686    -0.00035198
     6
  Step:    17            Position(A)                                  Velocity(au)
C        -0.03447570     0.01249962    -0.00579356     0.00005537     0.00006207    -0.00070103
N        -0.05173426    -0.04910471     1.31761464    -0.00009328     0.00002231     0.00065763
H         0.94762323    -0.01479061    -0.55409318    -0.00001292    -0.00031498    -0.00084565
H         0.83443516    -0.13823413     1.90120611     0.00026631    -0.00018631     0.00047361
H        -0.84381963    -0.08527100     1.88936496     0.00050030    -0.00047595    -0.00008674
H        -1.02144687     0.10194591    -0.58543220    -0.00011724    -0.00007245    -0.00032632
     6
  Step:    18            Position(A)                                  Velocity(au)
C        -0.03417778     0.01284014    -0.00967802     0.00005067     0.00005887    -0.00067717
N        -0.05217980    -0.04898244     1.32124241    -0.00006498     0.00002135     0.00062936
H         0.94742565    -0.01650902    -0.55879906    -0.00005641    -0.00029631    -0.00082614
H         0.83565391    -0.13922238     1.90358277     0.00016821    -0.00016517     0.00037298
H        -0.84178230    -0.08792473     1.88933979     0.00022148    -0.00046843     0.00008022
H        -1.02186423     0.10154952    -0.58720318    -0.00003408    -0.00006834    -0.00030367
     6
  Step:    19            Position(A)                                  Velocity(au)
C        -0.03390528     0.01316235    -0.01341652     0.00004663     0.00005596    -0.00065397
N        -0.05246580    -0.04886436     1.32469940    -0.00003727     0.00002094     0.00060157
H         0.94698823    -0.01812613    -0.56339303    -0.00009852    -0.00028088    -0.00081156
H         0.83632877    -0.14009343     1.90540482     0.00007457    -0.00014576     0.00027921
H        -0.84132640    -0.09054420     1.89026801    -0.00005698    -0.00046668     0.00024999
H        -1.02183047     0.10117662    -0.58885058     0.00004317    -0.00006450    -0.00028450
     6
  Step:    20            Position(A)                                  Velocity(au)
C        -0.03365471     0.01346793    -0.01701400     0.00004313     0.00005332    -0.00063154
N        -0.05259786    -0.04874760     1.32799059    -0.00001058     0.00002100     0.00057470
H         0.94632049    -0.01965981    -0.56790276    -0.00013924    -0.00026839    -0.00080174
H         0.83649037    -0.14085750     1.90671477    -0.00001397    -0.00012801     0.00019242
H        -0.84242145    -0.09315968     1.89214407    -0.00032887    -0.00046995     0.00041746
H        -1.02137996     0.10082593    -0.59039458     0.00011515    -0.00006081    -0.00026878
     6
  Step:    21            Position(A)                                  Velocity(au)
C        -0.03342321     0.01375836    -0.02047582     0.00004003     0.00005086    -0.00060929
N        -0.05258404    -0.04862966     1.33112325     0.00001463     0.00002145     0.00054852
H         0.94543187    -0.02112620    -0.57235476    -0.00017837    -0.00025832    -0.00079569
H         0.83617266    -0.14152431     1.90755562    -0.00009665    -0.00011172     0.00011266
H        -0.84500242    -0.09579721     1.89493430    -0.00058752    -0.00047705     0.00057717
H        -1.02054337     0.10049687    -0.59185492     0.00018223    -0.00005708    -0.00025619
     6
  Step:    22            Position(A)                                  Velocity(au)
C        -0.03320863     0.01403470    -0.02380401     0.00003586     0.00005081    -0.00063526
N        -0.05243482    -0.04850852     1.33410336     0.00003903     0.00002070     0.00056165
H         0.94433271    -0.02253860    -0.57677011    -0.00024228    -0.00030040    -0.00075527
H         0.83541329    -0.14210255     1.90797029    -0.00019088    -0.00003916     0.00002959
H        -0.84896889    -0.09847602     1.89857614    -0.00081675    -0.00054487     0.00069670
H        -1.01934917     0.10018987    -0.59324963     0.00028021    -0.00000861    -0.00020606
     6
  Step:    23            Position(A)                                  Velocity(au)
C        -0.03302442     0.01432340    -0.02754068     0.00003057     0.00005329    -0.00071078
N        -0.05214997    -0.04839949     1.33736946     0.00006208     0.00001833     0.00061592
H         0.94273740    -0.02446698    -0.58075430    -0.00032948    -0.00037585    -0.00067684
H         0.83404989    -0.14195985     1.90788472    -0.00029790     0.00006917    -0.00006167
H        -0.85408567    -0.10185685     1.90268241    -0.00100700    -0.00064898     0.00076740
H        -1.01742715     0.10040116    -0.59414651     0.00040741     0.00006592    -0.00011822
     6
  Step:    24            Position(A)                                  Velocity(au)
C        -0.03286889     0.01462691    -0.03170290     0.00002552     0.00005579    -0.00078337
N        -0.05174494    -0.04830482     1.34094808     0.00008184     0.00001580     0.00066960
H         0.94067119    -0.02671540    -0.58429182    -0.00040970    -0.00042651    -0.00059690
H         0.83210269    -0.14133389     1.90728495    -0.00039565     0.00014732    -0.00014951
H        -0.86015969    -0.10568810     1.90710426    -0.00115965    -0.00072027     0.00081145
H        -1.01482164     0.10092241    -0.59456346     0.00052371     0.00011510    -0.00003527
     6
  Step:    25            Position(A)                                  Velocity(au)
C        -0.03274068     0.01494377    -0.03625203     0.00002069     0.00005782    -0.00084607
N        -0.05123993    -0.04822379     1.34481559     0.00009750     0.00001343     0.00071652
H         0.93818139    -0.02920984    -0.58739203    -0.00047919    -0.00046535    -0.00051880
H         0.82965015    -0.14032155     1.90622208    -0.00047579     0.00021025    -0.00022547
H        -0.86698132    -0.10986645     1.91170599    -0.00127088    -0.00077419     0.00082941
H        -1.01160339     0.10168115    -0.59453872     0.00062443     0.00015372     0.00003962
     6
  Step:    26            Position(A)                                  Velocity(au)
C        -0.03263840     0.01527107    -0.04112873     0.00001614     0.00005920    -0.00089584
N        -0.05065872    -0.04815524     1.34893068     0.00010851     0.00001128     0.00075412
H         0.93533270    -0.03189975    -0.59007160    -0.00053493    -0.00049531    -0.00044422
H         0.82680198    -0.13899158     1.90477304    -0.00053326     0.00026124    -0.00028540
H        -0.87431828    -0.11431316     1.91634447    -0.00133766    -0.00081362     0.00082073
H        -1.00786506     0.10263494    -0.59412206     0.00070567     0.00018554     0.00010423
     6
  Step:    27            Position(A)                                  Velocity(au)
C        -0.03256039     0.01560511    -0.04625994     0.00001195     0.00005983    -0.00093104
N        -0.05002773    -0.04809780     1.35324030     0.00011456     0.00000939     0.00078096
H         0.93220535    -0.03474323    -0.59235461    -0.00057469    -0.00051769    -0.00037486
H         0.82369274    -0.13740315     1.90303373    -0.00056453     0.00030160    -0.00032650
H        -0.88192503    -0.11895585     1.92087486    -0.00135950    -0.00083967     0.00078649
H        -1.00371998     0.10375396    -0.59337426     0.00076434     0.00021235     0.00015668
     6
  Step:    28            Position(A)                                  Velocity(au)
C        -0.03250450     0.01594170    -0.05156477     0.00000821     0.00005970    -0.00095138
N        -0.04937459    -0.04805001     1.35768449     0.00011568     0.00000778     0.00079670
H         0.92889103    -0.03770250    -0.59427335    -0.00059722    -0.00053351    -0.00031242
H         0.82047422    -0.13561091     1.90111326    -0.00056782     0.00033225    -0.00034732
H        -0.88955686    -0.12372498     1.92516025    -0.00133897    -0.00085346     0.00072957
H        -0.99929763     0.10501515    -0.59236580     0.00079864     0.00023527     0.00019562
     6
  Step:    29            Position(A)                                  Velocity(au)
C        -0.03246809     0.01627665    -0.05696142     0.00000500     0.00005889    -0.00095792
N        -0.04872648    -0.04801034     1.36220191     0.00011221     0.00000645     0.00080209
H         0.92548763    -0.04074438    -0.59586880    -0.00060246    -0.00054404    -0.00025843
H         0.81730565    -0.13366588     1.89912689    -0.00054335     0.00035418    -0.00034783
H        -0.89698630    -0.12855594     1.92908130    -0.00128151    -0.00085674     0.00065431
H        -0.99473657     0.10640032    -0.59117381     0.00080837     0.00025528     0.00022046
     6
  Step:    30            Position(A)                                  Velocity(au)
C        -0.03244803     0.01660621    -0.06237450     0.00000240     0.00005752    -0.00095287
N        -0.04810836    -0.04797723     1.36673574     0.00010475     0.00000541     0.00079881
H         0.92209256    -0.04384179    -0.59718960    -0.00059147    -0.00055081    -0.00021400
H         0.81434275    -0.13161410     1.89718816    -0.00049307     0.00036872    -0.00032930
H        -0.90401810    -0.13339295     1.93254391    -0.00119449    -0.00085186     0.00056589
H        -0.99017551     0.10789582    -0.58987798     0.00079481     0.00027336     0.00023139
     6
  Step:    31            Position(A)                                  Velocity(au)
C        -0.03244092     0.01692736    -0.06774106     0.00000043     0.00005576    -0.00093901
N        -0.04754152    -0.04794914     1.37123865     0.00009404     0.00000464     0.00078901
H         0.91879640    -0.04697557    -0.59828970    -0.00056607    -0.00055546    -0.00017967
H         0.81172769    -0.12949461     1.89540154    -0.00042018     0.00037741    -0.00029398
H        -0.91049930    -0.13819283     1.93548308    -0.00108592    -0.00084145     0.00046936
H        -0.98574503     0.10949279    -0.58855615     0.00076026     0.00029051     0.00022924
     6
  Step:    32            Position(A)                                  Velocity(au)
C        -0.03244319     0.01723801    -0.07301367    -0.00000092     0.00005377    -0.00091907
N        -0.04704288    -0.04792463     1.37567538     0.00008085     0.00000413     0.00077484
H         0.91567883    -0.05013521    -0.59922535    -0.00052831    -0.00055949    -0.00015546
H         0.80958201    -0.12733801     1.89385725    -0.00032853     0.00038180    -0.00024459
H        -0.91632183    -0.14292677     1.93786191    -0.00096318    -0.00082800     0.00036908
H        -0.98156157     0.11118736    -0.58728063     0.00070745     0.00030764     0.00021524
     6
  Step:    33            Position(A)                                  Velocity(au)
C        -0.03245139     0.01753689    -0.07816003    -0.00000168     0.00005165    -0.00089525
N        -0.04662493    -0.04790235     1.38002254     0.00006589     0.00000384     0.00075801
H         0.91280723    -0.05331820    -0.60005205    -0.00048010    -0.00056407    -0.00014090
H         0.80800334    -0.12516630     1.89262874    -0.00022210     0.00038330    -0.00018395
H        -0.92141831    -0.14757946     1.93966716    -0.00083227    -0.00081347     0.00026837
H        -0.97772508     0.11298030    -0.58611604     0.00063896     0.00032546     0.00019074
     6
  Step:    34            Position(A)                                  Velocity(au)
C        -0.03246228     0.01782339    -0.08316005    -0.00000190     0.00004948    -0.00086906
N        -0.04629616    -0.04788115     1.38426635     0.00004975     0.00000374     0.00073970
H         0.91023753    -0.05652818    -0.60082220    -0.00042308    -0.00056993    -0.00013524
H         0.80706487    -0.12299384     1.89177240    -0.00010486     0.00038300    -0.00011484
H        -0.92575439    -0.15214624     1.94090352    -0.00069781    -0.00079914     0.00016967
H        -0.97431990     0.11487600    -0.58511887     0.00055707     0.00034446     0.00015705
     6
  Step:    35            Position(A)                                  Velocity(au)
C        -0.03247294     0.01809729    -0.08800188    -0.00000164     0.00004731    -0.00084137
N        -0.04606153    -0.04786002     1.38839942     0.00003299     0.00000380     0.00072056
H         0.90801595    -0.05977248    -0.60158356    -0.00035866    -0.00057739    -0.00013754
H         0.80681584    -0.12082889     1.89132817     0.00001914     0.00038175    -0.00003998
H        -0.92932079    -0.15662957     1.94158867    -0.00056328    -0.00078582     0.00007478
H        -0.97141635     0.11688122    -0.58433749     0.00046391     0.00036486     0.00011549
     6
  Step:    36            Position(A)                                  Velocity(au)
C        -0.03248087     0.01835860    -0.09267862    -0.00000098     0.00004514    -0.00081269
N        -0.04592292    -0.04783812     1.39241809     0.00001612     0.00000401     0.00070093
H         0.90618001    -0.06306028    -0.60237818    -0.00028821    -0.00058653    -0.00014673
H         0.80728138    -0.11867507     1.89132008     0.00014570     0.00038014     0.00003791
H        -0.93212681    -0.16103634     1.94174955    -0.00043142    -0.00077392    -0.00001489
H        -0.96907162     0.11900369    -0.58381227     0.00036161     0.00038666     0.00006744
     6
  Step:    37            Position(A)                                  Velocity(au)
C        -0.03248406     0.01860746    -0.09718603    -0.00000001     0.00004300    -0.00078326
N        -0.04587933    -0.04781472     1.39632055    -0.00000037     0.00000433     0.00068095
H         0.90475893    -0.06640087    -0.60324175    -0.00021317    -0.00059724    -0.00016168
H         0.80846236    -0.11653298     1.89175665     0.00027059     0.00037865     0.00011619
H        -0.93419631    -0.16537559     1.94142036    -0.00030462    -0.00076366    -0.00009816
H        -0.96732975     0.12125086    -0.58357533     0.00025252     0.00040973     0.00001434
     6
  Step:    38            Position(A)                                  Velocity(au)
C        -0.03248102     0.01884401    -0.10152135     0.00000118     0.00004087    -0.00075328
N        -0.04592712    -0.04778923     1.40010574    -0.00001603     0.00000475     0.00066070
H         0.90377344    -0.06980283    -0.60420346    -0.00013510    -0.00060929    -0.00018120
H         0.81033620    -0.11440030     1.89263186     0.00038966     0.00037769     0.00019232
H        -0.93556586    -0.16965778     1.94064138    -0.00018501    -0.00075523    -0.00017396
H        -0.96622079     0.12362937    -0.58365032     0.00013919     0.00043383    -0.00004225
     6
  Step:    39            Position(A)                                  Velocity(au)
C        -0.03247081     0.01906843    -0.10568276     0.00000248     0.00003876    -0.00072292
N        -0.04606013    -0.04776114     1.40377294    -0.00003042     0.00000526     0.00064021
H         0.90323509    -0.07327344    -0.60528566    -0.00005569    -0.00062244    -0.00020410
H         0.81285753    -0.11227281     1.89392592     0.00049896     0.00037755     0.00026394
H        -0.93628317    -0.17389426     1.93945816    -0.00007455    -0.00074877    -0.00024137
H        -0.96575980     0.12614433    -0.58405194     0.00002438     0.00045866    -0.00010075
     6
  Step:    40            Position(A)                                  Velocity(au)
C        -0.03245306     0.01928092    -0.10966945     0.00000380     0.00003669    -0.00069237
N        -0.04626994    -0.04772995     1.40732166    -0.00004315     0.00000585     0.00061955
H         0.90314578    -0.07681844    -0.60650390     0.00002330    -0.00063641    -0.00022917
H         0.81596008    -0.11014489     1.89560673     0.00059501     0.00037845     0.00032901
H        -0.93640607    -0.17809723     1.93792091     0.00002502    -0.00074446    -0.00029958
H        -0.96594601     0.12879894    -0.58478588    -0.00008902     0.00048384    -0.00015952
     6
  Step:    41            Position(A)                                  Velocity(au)
C        -0.03242798     0.01948172    -0.11348157     0.00000504     0.00003466    -0.00066183
N        -0.04654616    -0.04769519     1.41075159    -0.00005390     0.00000654     0.00059877
H         0.90349749    -0.08044197    -0.60786704     0.00010007    -0.00065093    -0.00025526
H         0.81955973    -0.10800996     1.89763185     0.00067492     0.00038053     0.00038586
H        -0.93600140    -0.18227986     1.93608370     0.00011212    -0.00074251    -0.00034796
H        -0.96676254     0.13159433    -0.58584879    -0.00019815     0.00050902    -0.00021699
     6
  Step:    42            Position(A)                                  Velocity(au)
C        -0.03239630     0.01967113    -0.11712036     0.00000611     0.00003268    -0.00063154
N        -0.04687677    -0.04765634     1.41406265    -0.00006242     0.00000732     0.00057793
H         0.90427232    -0.08414660    -0.60937757     0.00017289    -0.00066573    -0.00028126
H         0.82355834    -0.10586086     1.89995080     0.00073655     0.00038388     0.00043329
H        -0.93514381    -0.18645640     1.93400360     0.00018549    -0.00074313    -0.00038603
H        -0.96817681     0.13452948    -0.58722878    -0.00030030     0.00053382    -0.00027170
     6
  Step:    43            Position(A)                                  Velocity(au)
C        -0.03235920     0.01984948    -0.12058822     0.00000694     0.00003077    -0.00060172
N        -0.04724862    -0.04761281     1.41725502    -0.00006855     0.00000821     0.00055711
H         0.90544304    -0.08793340    -0.61103209     0.00024018    -0.00068059    -0.00030621
H         0.82784806    -0.10369022     1.90250768     0.00077857     0.00038851     0.00047056
H        -0.93391413    -0.19064227     1.93173968     0.00024415    -0.00074657    -0.00041355
H        -0.97014176     0.13760134    -0.58890621    -0.00039302     0.00055791    -0.00032235
     6
  Step:    44            Position(A)                                  Velocity(au)
C        -0.03231823     0.02001719    -0.12388878     0.00000747     0.00002892    -0.00057261
N        -0.04764783    -0.04756395     1.42032918    -0.00007219     0.00000923     0.00053636
H         0.90697393    -0.09180213    -0.61282196     0.00030051    -0.00069530    -0.00032924
H         0.83231601    -0.10149076     1.90524381     0.00080048     0.00039440     0.00049737
H        -0.93239757    -0.19485412     1.92935185     0.00028749    -0.00075306    -0.00043046
H        -0.97259766     0.14080502    -0.59085474    -0.00047427     0.00058099    -0.00036788
     6