 Fermi distribution function

Calculation with static geometry


********************************************************************************
 iSCC Total electronic   Diff electronic      SCC error    
   11   -0.53831710E+01   -0.84154905E-11    0.23812009E-07
********************************************************************************

 Total charge:     1.00000000

 Atomic gross charges (e)
 Atom           Charge
    1       0.31222833
    2      -0.20366977
    3       0.15476768
    4       0.27617063
    5       0.30818693
    6       0.15231620

Nr. of electrons (up):     12.00000000
Atom populations (up)
 Atom       Population
    1       3.68777167
    2       5.20366977
    3       0.84523232
    4       0.72382937
    5       0.69181307
    6       0.84768380

l-shell populations (up)
 Atom Sh.   l       Population
    1   1   0       1.30459845
    1   2   1       2.38317322
    2   1   0       1.42061449
    2   2   1       3.78305528
    3   1   0       0.84523232
    4   1   0       0.72382937
    5   1   0       0.69181307
    6   1   0       0.84768380

Orbital populations (up)
 Atom Sh.   l   m       Population  Label
    1   1   0   0       1.30459845  s
    1   2   1  -1       0.52865925  p_y
    1   2   1   0       0.89612447  p_z
    1   2   1   1       0.95838950  p_x
    2   1   0   0       1.42061449  s
    2   2   1  -1       1.33945899  p_y
    2   2   1   0       1.08442306  p_z
    2   2   1   1       1.35917324  p_x
    3   1   0   0       0.84523232  s
    4   1   0   0       0.72382937  s
    5   1   0   0       0.69181307  s
    6   1   0   0       0.84768380  s

Fermi level:                        -0.4880980354 H          -13.2818 eV
Band energy:                        -8.8488291254 H         -240.7889 eV
TS:                                  0.0000000000 H            0.0000 eV
Band free energy (E-TS):            -8.8488291254 H         -240.7889 eV
Extrapolated E(0K):                 -8.8488291254 H         -240.7889 eV
Input / Output electrons (q):     12.0000000000     12.0000000000

Energy H0:                          -5.5170755758 H         -150.1273 eV
Energy SCC:                          0.1339046035 H            3.6437 eV
Total Electronic energy:            -5.3831709723 H         -146.4835 eV
Repulsive energy:                    0.1918304130 H            5.2200 eV
Total energy:                       -5.1913405594 H         -141.2636 eV
Extrapolated to 0:                  -5.1913405594 H         -141.2636 eV
Total Mermin free energy:           -5.1913405594 H         -141.2636 eV
Force related energy:               -5.1913405594 H         -141.2636 eV

SCC converged

Excitation Energy:                   0.0901685711 H            2.4536 eV

Total Forces
    1      0.008572138349      0.004392952777      0.017244679282
    2     -0.004939847233      0.006245222748     -0.020145854882
    3     -0.007199245732      0.011397529059     -0.000820223387
    4     -0.011691646059     -0.014433221490     -0.004393753926
    5      0.010818465052      0.009301334476      0.003664139181
    6      0.004440135623     -0.016903817570      0.004451013733

Maximal derivative component:        0.201459E-01 au


