|===============================================================================
|
|  DFTB+ release 20.1
|
|  Copyright (C) 2006 - 2020  DFTB+ developers group
|
|===============================================================================
|
|  When publishing results obtained with DFTB+, please cite the following
|  reference:
|
|  * DFTB+, a software package for efficient approximate density functional
|    theory based atomistic simulations, J. Chem. Phys. 152, 124101 (2020).
|    [doi: 10.1063/1.5143190]
|
|  You should also cite additional publications crediting the parametrization
|  data you use. Please consult the documentation of the SK-files for the
|  references.
|
|===============================================================================

Reading input file 'dftb_in.hsd'
Parser version: 8

--------------------------------------------------------------------------------
Reading SK-files:
Done.


Processed input in HSD format written to 'dftb_pin.hsd'

Starting initialization...
--------------------------------------------------------------------------------
WARNING!
-> Excited state forces are not implemented yet for fractional occupations, kT=  0.3158E-02K
OpenMP threads:              1
Chosen random seed:          509314499
Mode:                        Static calculation
Self consistent charges:     Yes
SCC-tolerance:                 0.100000E-05
Max. scc iterations:                    100
Shell resolved Hubbard:      No
Spin polarisation:           No
Nr. of up electrons:             6.000000
Nr. of down electrons:           6.000000
Periodic boundaries:         No
Electronic solver:           Relatively robust
Mixer:                       Broyden mixer
Mixing parameter:                  0.200000
Maximal SCC-cycles:                     100
Nr. of chrg. vec. in memory:              0
Electronic temperature:        0.100000E-07 H      0.272114E-06 eV
Initial charges:             Set automatically (system chrg:   0.100E+01)
Included shells:             C:  s, p
                             N:  s, p
                             H:  s
Extra options:
                             Mulliken analysis
                             Force calculation
Force type                   original
                             Eigenvector printing

--------------------------------------------------------------------------------

***  Geometry step: 0

 iSCC Total electronic   Diff electronic      SCC error    
    1   -0.53691476E+01    0.00000000E+00    0.91667580E+00
    2   -0.53770121E+01   -0.78645183E-02    0.62656605E+00
    3   -0.53824328E+01   -0.54206658E-02    0.11917689E+00
    4   -0.53831107E+01   -0.67794022E-03    0.73526894E-01
    5   -0.53831486E+01   -0.37932833E-04    0.25624811E-01
    6   -0.53831543E+01   -0.56256215E-05    0.19478632E-01
    7   -0.53831709E+01   -0.16693620E-04    0.79124092E-03
    8   -0.53831709E+01    0.33140415E-08    0.82974428E-03
    9   -0.53831710E+01   -0.30927039E-07    0.29034732E-05
   10   -0.53831710E+01    0.77333695E-11    0.13206725E-04
   11   -0.53831710E+01   -0.84154905E-11    0.23812009E-07
>> Charges saved for restart in charges.bin

Total Energy:                       -5.1011719883 H         -138.8100 eV
Extrapolated to 0:                  -5.1913405594 H         -141.2636 eV
Total Mermin free energy:           -5.1011719883 H         -138.8100 eV
Force related energy:               -5.1913405594 H         -141.2636 eV

--------------------------------------------------------------------------------
DFTB+ running times                          cpu [s]             wall clock [s]
--------------------------------------------------------------------------------
SCC                                    +     0.01  ( 47.4%)      0.03  ( 62.5%)
Post-SCC processing                    +     0.01  ( 45.2%)      0.01  ( 31.2%)
--------------------------------------------------------------------------------
Missing                                +     0.00  (  7.4%)      0.00  (  6.3%)
Total                                  =     0.02  (100.0%)      0.05  (100.0%)
--------------------------------------------------------------------------------
