 Fermi distribution function

Calculation with static geometry


********************************************************************************
 iSCC Total electronic   Diff electronic      SCC error    
    9   -0.54768250E+01   -0.72830630E-13    0.44274334E-06
********************************************************************************

 Total charge:     1.00000000

 Atomic gross charges (e)
 Atom           Charge
    1       0.17146203
    2      -0.04473770
    3       0.16247539
    4       0.27391994
    5       0.27380193
    6       0.16307841

Nr. of electrons (up):     12.00000000
Atom populations (up)
 Atom       Population
    1       3.82853797
    2       5.04473770
    3       0.83752461
    4       0.72608006
    5       0.72619807
    6       0.83692159

l-shell populations (up)
 Atom Sh.   l       Population
    1   1   0       1.27526371
    1   2   1       2.55327426
    2   1   0       1.42758410
    2   2   1       3.61715360
    3   1   0       0.83752461
    4   1   0       0.72608006
    5   1   0       0.72619807
    6   1   0       0.83692159

Orbital populations (up)
 Atom Sh.   l   m       Population  Label
    1   1   0   0       1.27526371  s
    1   2   1  -1       0.63702993  p_y
    1   2   1   0       0.89097502  p_z
    1   2   1   1       1.02526931  p_x
    2   1   0   0       1.42758410  s
    2   2   1  -1       1.36072434  p_y
    2   2   1   0       1.10263676  p_z
    2   2   1   1       1.15379250  p_x
    3   1   0   0       0.83752461  s
    4   1   0   0       0.72608006  s
    5   1   0   0       0.72619807  s
    6   1   0   0       0.83692159  s

Fermi level:                        -0.4908675841 H          -13.3572 eV
Band energy:                        -9.0151347664 H         -245.3143 eV
TS:                                  0.0000000000 H            0.0000 eV
Band free energy (E-TS):            -9.0151347664 H         -245.3143 eV
Extrapolated E(0K):                 -9.0151347664 H         -245.3143 eV
Input / Output electrons (q):     12.0000000000     12.0000000000

Energy H0:                          -5.6107794663 H         -152.6771 eV
Energy SCC:                          0.1339544809 H            3.6451 eV
Total Electronic energy:            -5.4768249854 H         -149.0320 eV
Repulsive energy:                    0.2077807020 H            5.6540 eV
Total energy:                       -5.2690442834 H         -143.3780 eV
Extrapolated to 0:                  -5.2690442834 H         -143.3780 eV
Total Mermin free energy:           -5.2690442834 H         -143.3780 eV
Force related energy:               -5.2690442834 H         -143.3780 eV

SCC converged

Excitation Energy:                   0.2125603501 H            5.7841 eV

Total Forces
    1      0.011449209988     -0.000053554023      0.093397630864
    2      0.000247883566     -0.000011450313     -0.052008817988
    3      0.006194163810     -0.002673105253     -0.001098314181
    4      0.035504400805     -0.005793276400     -0.016218525283
    5     -0.035584979581      0.005801780126     -0.016168199625
    6     -0.017810678588      0.002729605862     -0.007903773787

Maximal derivative component:        0.933976E-01 au


