|===============================================================================
|
|  DFTB+ release 20.1
|
|  Copyright (C) 2006 - 2020  DFTB+ developers group
|
|===============================================================================
|
|  When publishing results obtained with DFTB+, please cite the following
|  reference:
|
|  * DFTB+, a software package for efficient approximate density functional
|    theory based atomistic simulations, J. Chem. Phys. 152, 124101 (2020).
|    [doi: 10.1063/1.5143190]
|
|  You should also cite additional publications crediting the parametrization
|  data you use. Please consult the documentation of the SK-files for the
|  references.
|
|===============================================================================

Reading input file 'dftb_in.hsd'
Parser version: 8

--------------------------------------------------------------------------------
Reading SK-files:
Done.


Processed input in HSD format written to 'dftb_pin.hsd'

Starting initialization...
--------------------------------------------------------------------------------
OpenMP threads:              1
Chosen random seed:          511715692
Mode:                        Static calculation
Self consistent charges:     Yes
SCC-tolerance:                 0.100000E-05
Max. scc iterations:                   1000
Shell resolved Hubbard:      No
Spin polarisation:           No
Nr. of up electrons:             6.000000
Nr. of down electrons:           6.000000
Periodic boundaries:         No
Electronic solver:           Relatively robust
Maximal SCC-cycles:                    1000
Initial charges:             Set automatically (system chrg:   0.100E+01)
Included shells:             C:  s, p
                             N:  s, p
                             H:  s
Spin coupling constants:     C   1(s)-1(s):  -0.455900E-01
                             C   1(s)-2(p):  -0.293000E-01
                             C   2(p)-1(s):  -0.293000E-01
                             C   2(p)-2(p):  -0.275500E-01
                             N   1(s)-1(s):  -0.468700E-01
                             N   1(s)-2(p):  -0.317000E-01
                             N   2(p)-1(s):  -0.317000E-01
                             N   2(p)-2(p):  -0.307200E-01
                             H   1(s)-1(s):  -0.792500E-01
Range separated hybrid:      Yes
  Screening parameter omega:   0.300000E+00
  Range separated algorithm:   MatrixBased
Extra options:
                             Mulliken analysis
                             Force calculation
Force type                   original
                             Eigenvector printing


REKS Calcuation:             Yes
SSR(2,2) Calcuation:         Yes
Energy Functional:           (PPS+OSS)/2
Number of Core Orbitals:                  5
Number of Active Orbitals:                2
Number of Basis:                         12
Number of States:                         2
State-Averaging Weight:          0.500000
                                 0.500000
State of Interest:                        1
Initial Guess:               Diagonalize H0 matrix
Newton-Raphson for FON opt:  Yes
NR max. Iterations:                      50
Level Shifting:              Yes
Shift Value:                     0.300000
W Scale Factor:              C  =    3.000000
                             N  =    3.000000
                             H  =    3.000000
Transition Dipole:           No
Gradient of Microstate:      No
CP-REKS Solver:              Preconditioned Conjugate-Gradient
CG max. Iterations:                     100
CG Tolerance:                  0.100000E-07
Memory for A and Hxc:        Direct Updating Without Saving
Non-Adiabatic Coupling:      Yes

--------------------------------------------------------------------------------

***  Geometry step: 0

  iSCC       reks energy        Diff energy         x_a       SCC error   
    1       -6.2592295710       0.0000000000     0.999186    1.18311385
    2       -6.2735796417      -0.0143500707     0.999684    0.10525317
    3       -6.2784448524      -0.0048652107     0.999832    0.04937488
    4       -6.2812148958      -0.0027700434     0.999895    0.02435075
    5       -6.2830721332      -0.0018572374     0.999926    0.01241398
    6       -6.2843848910      -0.0013127578     0.999943    0.01109698
    7       -6.2853124166      -0.0009275256     0.999953    0.01054937
    8       -6.2859530835      -0.0006406669     0.999959    0.00946766
    9       -6.2863834294      -0.0004303458     0.999963    0.00820101
   10       -6.2866652335      -0.0002818041     0.999965    0.00693763
   11       -6.2868460753      -0.0001808418     0.999966    0.00577473
   12       -6.2869604520      -0.0001143767     0.999967    0.00475402
   13       -6.2870321122      -0.0000716602     0.999968    0.00388463
   14       -6.2870767734      -0.0000446612     0.999968    0.00315836
   15       -6.2871045507      -0.0000277773     0.999969    0.00255926
   16       -6.2871218316      -0.0000172810     0.999969    0.00206915
   17       -6.2871326028      -0.0000107711     0.999969    0.00167035
   18       -6.2871393356      -0.0000067328     0.999969    0.00134701
   19       -6.2871435585      -0.0000042229     0.999969    0.00108548
   20       -6.2871462168      -0.0000026582     0.999969    0.00087428
   21       -6.2871478960      -0.0000016793     0.999969    0.00070391
   22       -6.2871489604      -0.0000010644     0.999969    0.00056658
   23       -6.2871496371      -0.0000006767     0.999969    0.00045595
   24       -6.2871500685      -0.0000004314     0.999969    0.00036686
   25       -6.2871503442      -0.0000002757     0.999969    0.00029514
   26       -6.2871505207      -0.0000001765     0.999969    0.00023742
   27       -6.2871506340      -0.0000001132     0.999969    0.00019097
   28       -6.2871507067      -0.0000000727     0.999969    0.00015360
   29       -6.2871507535      -0.0000000468     0.999969    0.00012354
   30       -6.2871507836      -0.0000000301     0.999969    0.00009935
   31       -6.2871508030      -0.0000000194     0.999969    0.00007990
   32       -6.2871508155      -0.0000000125     0.999969    0.00006426
   33       -6.2871508236      -0.0000000081     0.999969    0.00005167
   34       -6.2871508288      -0.0000000052     0.999969    0.00004155
   35       -6.2871508322      -0.0000000034     0.999969    0.00003341
   36       -6.2871508343      -0.0000000022     0.999969    0.00002687
   37       -6.2871508358      -0.0000000014     0.999969    0.00002161
   38       -6.2871508367      -0.0000000009     0.999969    0.00001738
   39       -6.2871508372      -0.0000000006     0.999969    0.00001401
   40       -6.2871508376      -0.0000000004     0.999969    0.00001128
   41       -6.2871508379      -0.0000000002     0.999969    0.00000909
   42       -6.2871508380      -0.0000000002     0.999969    0.00000732
   43       -6.2871508381      -0.0000000001     0.999969    0.00000589
   44       -6.2871508382      -0.0000000001     0.999969    0.00000474
   45       -6.2871508382      -0.0000000000     0.999969    0.00000382
   46       -6.2871508383      -0.0000000000     0.999969    0.00000307
   47       -6.2871508383      -0.0000000000     0.999968    0.00000247
   48       -6.2871508383      -0.0000000000     0.999968    0.00000199
   49       -6.2871508383      -0.0000000000     0.999968    0.00000160
   50       -6.2871508383      -0.0000000000     0.999968    0.00000129
   51       -6.2871508383      -0.0000000000     0.999968    0.00000104
   52       -6.2871508383      -0.0000000000     0.999968    0.00000083
  
--------------------------------------------------
 Final SA-REKS(2,2) energy:      -6.28715084
  
 State     Energy      FON(1)    FON(2)   Spin
  PPS   -6.41704642   1.999937  0.000063  0.00
  OSS   -6.15725525   1.000000  1.000000  0.00
 Trip   -6.23634584   1.000000  1.000000  1.00
--------------------------------------------------

 Lagrangian Wab:   0.00281510  0.00281500

--------------------------------------------------
 SSR: 2SI-2SA-REKS(2,2) Hamiltonian matrix
               PPS           OSS
   PPS    -6.41704642    0.00395874
   OSS     0.00395874   -6.15725525
--------------------------------------------------

----------------------------------------------------------------
 SSR: 2SI-2SA-REKS(2,2) states
                    E_n       C_{PPS}    C_{OSS}
 SSR state  1   -6.41710673  -0.999884   0.015233
 SSR state  2   -6.15719494  -0.015233  -0.999884
----------------------------------------------------------------

 unrelaxed SSR FONs for S0:  1.999705  0.000295

Total Energy:                       -6.4171067348 H         -174.6184 eV
Extrapolated to 0:                  -6.4171067348 H         -174.6184 eV

----------------------------------------------------------------------------------
 Solving CP-REKS equation for  1 state vector...
----------------------------------------------------------------------------------
  CG solver: Constructing Y initial guess
  CG solver: Iteration    1    eps =    0.000048930552
  CG solver: Iteration    2    eps =    0.000009433356
  CG solver: Iteration    3    eps =    0.000000369733
  CG solver: Iteration    4    eps =    0.000000081043
  CG solver: Iteration    5    eps =    0.000000005177
  Convergence reached in CG solver after    5 iterations
  CG solver: Calculating converged R, Z, Q2 matrix
----------------------------------------------------------------------------------

----------------------------------------------------------------------------------
 Solving CP-REKS equation for SI between  1 and  2 state vectors...
----------------------------------------------------------------------------------
  CG solver: Constructing Y initial guess
  CG solver: Iteration    1    eps =    0.000795616930
  CG solver: Iteration    2    eps =    0.000707691567
  CG solver: Iteration    3    eps =    0.000179851532
  CG solver: Iteration    4    eps =    0.000002257266
  CG solver: Iteration    5    eps =    0.000000308878
  CG solver: Iteration    6    eps =    0.000000005776
  Convergence reached in CG solver after    6 iterations
  CG solver: Calculating converged R, Z, Q2 matrix
----------------------------------------------------------------------------------

--------------------------------------------------
 Gradient Information
--------------------------------------------------
           1 st state (SSR)
    -0.00054488     0.00000155    -0.00784777
     0.00143381     0.00030779     0.00696901
    -0.00627518     0.00348287     0.00201252
    -0.00788558    -0.00020166    -0.00073288
     0.00682148    -0.00062495    -0.00218780
     0.00645035    -0.00296559     0.00178692

           2 st state (SSR)
     0.00070455    -0.00471038     0.09471729
    -0.00072831     0.00705972    -0.11328142
     0.00393383    -0.01338002     0.01862581
     0.00679983     0.00460649    -0.00908911
    -0.00658513    -0.00548502    -0.01098302
    -0.00412477     0.01190922     0.02001046
--------------------------------------------------
 Coupling Information
--------------------------------------------------
 between  1 and  2 states
--------------------------------------------------
 g vector - difference gradient
    -0.00062260     0.00237106    -0.05142601
     0.00108481    -0.00339493     0.06021898
    -0.00532516     0.00846724    -0.00830037
    -0.00757709    -0.00233581     0.00419983
     0.00693573     0.00236987     0.00441627
     0.00550432    -0.00747743    -0.00910869

 h vector - derivative coupling
     0.00007880     0.00045949    -0.00392689
     0.00010669    -0.00057093     0.00216060
    -0.00716260     0.00104606     0.00033233
    -0.00757891     0.00227665     0.00064899
     0.00752420    -0.00201109     0.00054526
     0.00703182    -0.00120018     0.00023970

 G vector - GDV
    -0.00062472     0.00235596    -0.05128253
     0.00108106    -0.00337597     0.06012522
    -0.00510450     0.00843145    -0.00830665
    -0.00734270    -0.00240408     0.00417811
     0.00670331     0.00243004     0.00439761
     0.00528756    -0.00743740    -0.00911177

 H vector - DCV - non-adiabatic coupling
     0.00023008     0.00204495    -0.02112875
     0.00053743    -0.00259351     0.01536675
    -0.02816913     0.00501517     0.00030522
    -0.03003406     0.00848149     0.00298804
     0.02974848    -0.00745624     0.00261449
     0.02768720    -0.00549186    -0.00014575
--------------------------------------------------


--------------------------------------------------------------------------------
DFTB+ running times                          cpu [s]             wall clock [s]
--------------------------------------------------------------------------------
SCC                                    +     0.02  ( 68.3%)      0.03  ( 65.8%)
Post-SCC processing                    +     0.01  ( 28.0%)      0.01  ( 26.3%)
--------------------------------------------------------------------------------
Missing                                +     0.00  (  3.7%)      0.00  (  7.9%)
Total                                  =     0.03  (100.0%)      0.04  (100.0%)
--------------------------------------------------------------------------------
