    14
  Step:     0            Position(A)                                  Velocity(au)
C        -5.98237356    -0.98098267    -0.08656063    -0.00006690    -0.00008748     0.00015972
C        -4.69917398    -0.67103582     0.09693356     0.00013497    -0.00012841    -0.00004732
H        -6.69962330    -0.24524444    -0.35193482    -0.00022122     0.00089842    -0.00030637
H        -6.41083040    -1.92482787     0.21646374     0.00001498     0.00023486    -0.00040705
H        -3.94332674    -1.41912499     0.49875748    -0.00026176     0.00022786    -0.00021483
C        -3.98719705     0.61452070    -0.11547642    -0.00013744     0.00017084    -0.00010694
C        -2.63727468     0.63498128     0.18583489    -0.00023579    -0.00033343    -0.00006938
H        -4.55247163     1.61749609    -0.36763388     0.00124745     0.00062900     0.00003942
H        -2.17349244    -0.31704149     0.52345388    -0.00018456    -0.00033818     0.00111814
C        -1.81197449     1.75003979     0.03336887     0.00034579     0.00022865     0.00004630
H        -2.12598262     2.75888826    -0.24550050    -0.00016738    -0.00190943     0.00069781
N        -0.45833203     1.65526590     0.22944693    -0.00016596     0.00009615    -0.00005325
H         0.18481555     2.42373741    -0.08417915     0.00029567     0.00036721    -0.00024215
H        -0.07220831     0.68767853     0.27624694     0.00109889     0.00033954     0.00026494
    14
  Step:     1            Position(A)                                  Velocity(au)
C        -5.98337800    -0.98200107    -0.08477673    -0.00011706    -0.00009413     0.00016483
C        -4.69714816    -0.67228812     0.09647311     0.00023194    -0.00009949    -0.00003769
H        -6.70283920    -0.23451847    -0.35602087    -0.00033658     0.00102792    -0.00042637
H        -6.41054157    -1.92282672     0.21189206     0.00002876     0.00011533    -0.00042263
H        -3.94754973    -1.41624764     0.49579624    -0.00049506     0.00028621    -0.00032001
C        -3.98925889     0.61639810    -0.11669292    -0.00023597     0.00017158    -0.00011477
C        -2.63955820     0.63130574     0.18513198    -0.00018087    -0.00033730    -0.00005882
H        -4.53764426     1.62189458    -0.36683568     0.00144755     0.00018024     0.00010272
H        -2.17572235    -0.32010463     0.53550552    -0.00022898    -0.00021331     0.00107793
C        -1.80810034     1.75263338     0.03385436     0.00036042     0.00023634     0.00004415
H        -2.12838063     2.73761867    -0.23780635    -0.00028971    -0.00189888     0.00068719
N        -0.46002929     1.65627925     0.22884167    -0.00014102     0.00008995    -0.00005760
H         0.18693490     2.42639406    -0.08626407     0.00007948     0.00010923    -0.00013322
H        -0.06034744     0.69284946     0.27913363     0.00105750     0.00060906     0.00026226
    14
  Step:     2            Position(A)                                  Velocity(au)
C        -5.98493450    -0.98304187    -0.08295462    -0.00016689    -0.00009143     0.00016682
C        -4.69409993    -0.67321239     0.09610897     0.00032002    -0.00006837    -0.00003011
H        -6.70698670    -0.22275678    -0.36126257    -0.00039082     0.00108570    -0.00051650
H        -6.41020130    -1.92230487     0.20721784     0.00002543    -0.00003197    -0.00042694
H        -3.95415717    -1.41286370     0.49175660    -0.00069065     0.00031544    -0.00040881
C        -3.99235924     0.61827431    -0.11798731    -0.00032629     0.00016976    -0.00012086
C        -2.64123157     0.62760222     0.18454806    -0.00012467    -0.00033807    -0.00004783
H        -4.52080369     1.62143908    -0.36538679     0.00160911    -0.00024706     0.00015555
H        -2.17850179    -0.32170805     0.54703571    -0.00028245    -0.00007610     0.00102441
C        -1.80408951     1.75521014     0.03433465     0.00037080     0.00022505     0.00004547
H        -2.13232059     2.71734673    -0.23046690    -0.00045122    -0.00172304     0.00063198
N        -0.46141707     1.65723364     0.22818690    -0.00011043     0.00008541    -0.00006204
H         0.18655442     2.42612709    -0.08709352    -0.00015060    -0.00015436    -0.00001752
H        -0.04907343     0.70100290     0.28198447     0.00099618     0.00087277     0.00025922
    14
  Step:     3            Position(A)                                  Velocity(au)
C        -5.98702893    -0.98400135    -0.08112711    -0.00021442    -0.00007962     0.00016608
C        -4.69014717    -0.67378385     0.09581438     0.00039564    -0.00003492    -0.00002534
H        -6.71138913    -0.21076672    -0.36732030    -0.00038582     0.00107122    -0.00057580
H        -6.40998513    -1.92352607     0.20255197     0.00000811    -0.00019789    -0.00042274
H        -3.96265896    -1.40934669     0.48685280    -0.00083494     0.00030581    -0.00047508
C        -3.99639722     0.62011189    -0.11933704    -0.00040645     0.00016352    -0.00012457
C        -2.64228549     0.62390971     0.18408555    -0.00006801    -0.00033485    -0.00003683
H        -4.50244194     1.61648977    -0.36343263     0.00171904    -0.00062831     0.00019198
H        -2.18190139    -0.32176943     0.55791655    -0.00033967     0.00006369     0.00096115
C        -1.79998840     1.75755675     0.03484916     0.00037677     0.00019483     0.00005025
H        -2.13825185     2.69992378    -0.22398051    -0.00065196    -0.00138633     0.00053359
N        -0.46244511     1.65814768     0.22748434    -0.00007642     0.00008257    -0.00006609
H         0.18364033     2.42301713    -0.08664741    -0.00037283    -0.00039758     0.00009504
H        -0.03855400     0.71194299     0.28480458     0.00092465     0.00110680     0.00025760
    14
  Step:     4            Position(A)                                  Velocity(au)
C        -5.98962542    -0.98478361    -0.07932141    -0.00025778    -0.00005977     0.00016317
C        -4.68544451    -0.67397644     0.09555466     0.00045580     0.00000097    -0.00002402
H        -6.71542733    -0.19932170    -0.37385925    -0.00032905     0.00099018    -0.00060566
H        -6.41002390    -1.92663404     0.19796970    -0.00001841    -0.00037012    -0.00041364
H        -3.97242314    -1.40617347     0.48136336    -0.00091623     0.00024865    -0.00051347
C        -4.00125118     0.62185162    -0.12071245    -0.00047471     0.00015072    -0.00012523
C        -2.64271948     0.62027665     0.18374233    -0.00001162    -0.00032682    -0.00002621
H        -4.48319650     1.60769352    -0.36118678     0.00176399    -0.00093571     0.00020548
H        -2.18593264    -0.32031460     0.56806265    -0.00039527     0.00019622     0.00089226
C        -1.79584686     1.75947243     0.03543394     0.00037773     0.00014813     0.00005783
H        -2.14658352     2.68701821    -0.21879354    -0.00088288    -0.00092025     0.00040075
N        -0.46308881     1.65904011     0.22674112    -0.00004142     0.00008139    -0.00006924
H         0.17839811     2.41742933    -0.08501440    -0.00056552    -0.00059469     0.00019455
H        -0.02884501     0.72521634     0.28761989     0.00085331     0.00128865     0.00025934
    14
  Step:     5            Position(A)                                  Velocity(au)
C        -5.99266845    -0.98530890    -0.07755747    -0.00029536    -0.00003362     0.00015880
C        -4.68017558    -0.67376263     0.09528887     0.00049835     0.00003937    -0.00002661
H        -6.71858765    -0.18910474    -0.38057030    -0.00023128     0.00085241    -0.00060909
H        -6.41038786    -1.93162319     0.19350285    -0.00004824    -0.00053445    -0.00040367
H        -3.98270326    -1.40390695     0.47561965    -0.00092653     0.00013812    -0.00052036
C        -4.00678239     0.62340909    -0.12207679    -0.00052978     0.00012892    -0.00012224
C        -2.64253962     0.61675989     0.18351212     0.00004411    -0.00031323    -0.00001633
H        -4.46385119     1.59601937    -0.35893729     0.00173113    -0.00113885     0.00018911
H        -2.19054860    -0.31747682     0.57743644    -0.00044403     0.00031190     0.00082229
C        -1.79172487     1.76079743     0.03611425     0.00037239     0.00008973     0.00006696
H        -2.15756646     2.67979160    -0.21521344    -0.00112413    -0.00038292     0.00024924
N        -0.46335121     1.65992830     0.22596959    -0.00000795     0.00008166    -0.00007105
H         0.17126860     2.41000723    -0.08239121    -0.00070792    -0.00072119     0.00027146
H        -0.01988632     0.74013460     0.29047822     0.00079252     0.00139870     0.00026645
    14
  Step:     6            Position(A)                                  Velocity(au)
C        -5.99608705    -0.98551901    -0.07584743    -0.00032598    -0.00000322     0.00015365
C        -4.67454209    -0.67311508     0.09497255     0.00052228     0.00008014    -0.00003325
H        -6.72048693    -0.18067368    -0.38718421    -0.00010478     0.00067009    -0.00059014
H        -6.41107916    -1.93832609     0.18913875    -0.00007532    -0.00067644    -0.00039661
H        -3.99269277    -1.40315188     0.46997958    -0.00086391    -0.00002652    -0.00049510
C        -4.01284122     0.62467197    -0.12338671    -0.00057116     0.00009563    -0.00011506
C        -2.64175455     0.61342409     0.18338503     0.00009922    -0.00029339    -0.00000748
H        -4.44532482     1.58277892    -0.35704962     0.00160986    -0.00120798     0.00013626
H        -2.19564659    -0.31349120     0.58605191    -0.00048113     0.00040194     0.00075606
C        -1.78770003     1.76143548     0.03689883     0.00035898     0.00002573     0.00007606
H        -2.17117601     2.67864119    -0.21334083    -0.00134757     0.00015207     0.00009887
N        -0.46326279     1.66082653     0.22518682     0.00002161     0.00008300    -0.00007113
H         0.16291102     2.40165191    -0.07907565    -0.00078196    -0.00075578     0.00031740
H        -0.01150711     0.75581557     0.29344899     0.00075146     0.00142243     0.00028076
    14
  Step:     7            Position(A)                                  Velocity(au)
C        -5.99979998    -0.98537931    -0.07419618    -0.00034899     0.00002927     0.00014832
C        -4.66874972    -0.67200932     0.09456144     0.00052799     0.00012284    -0.00004372
H        -6.72087992    -0.17444531    -0.39348066     0.00003784     0.00045650    -0.00055351
H        -6.41203559    -1.94642168     0.18482622    -0.00009432    -0.00078333    -0.00039550
H        -4.00160285    -1.40448706     0.46478839    -0.00073443    -0.00023850    -0.00044118
C        -4.01927753     0.62550123    -0.12459387    -0.00059947     0.00004880    -0.00010339
C        -2.64036908     0.61034151     0.18334856     0.00015440    -0.00026660     0.00000018
H        -4.42863251     1.56959249    -0.35595641     0.00139508    -0.00112091     0.00004230
H        -2.20107426    -0.30868371     0.59397667    -0.00050244     0.00045886     0.00069836
C        -1.78387143     1.76136041     0.03777830     0.00033570    -0.00003801     0.00008365
H        -2.18704714     2.68311843    -0.21305049    -0.00152320     0.00061370    -0.00003162
N        -0.46287851     1.66174406     0.22441350     0.00004535     0.00008492    -0.00006926
H         0.15416180     2.39347304    -0.07544752    -0.00077504    -0.00068370     0.00032658
H        -0.00344664     0.77125299     0.29662046     0.00073654     0.00135307     0.00030371
    14
  Step:     8            Position(A)                                  Velocity(au)
C        -6.00372176    -0.98487878    -0.07260267    -0.00036428     0.00006174     0.00014328
C        -4.66299124    -0.67042773     0.09401609     0.00051749     0.00016670    -0.00005738
H        -6.71965905    -0.17068679    -0.39929336     0.00018421     0.00022546    -0.00050432
H        -6.41314262    -1.95546293     0.18048643    -0.00010132    -0.00084551    -0.00040221
H        -4.00875989    -1.40836953     0.46032802    -0.00055287    -0.00048218    -0.00036662
C        -4.02595585     0.62573951    -0.12564853    -0.00061693    -0.00001245    -0.00008738
C        -2.63837674     0.60759164     0.18338887     0.00021103    -0.00023229     0.00000657
H        -4.41480480     1.55825682    -0.35612421     0.00109102    -0.00087312    -0.00009296
H        -2.20663835    -0.30345266     0.60132982    -0.00050479     0.00047736     0.00065356
C        -1.78035605     1.76060404     0.03872872     0.00030137    -0.00009729     0.00008868
H        -2.20449899     2.69206708    -0.21403255    -0.00162690     0.00095025    -0.00012900
N        -0.46227063     1.66268435     0.22367172     0.00006222     0.00008696    -0.00006545
H         0.14595554     2.38669466    -0.07193118    -0.00068366    -0.00050107     0.00029758
H         0.00460602     0.78541655     0.30009327     0.00074972     0.00119400     0.00033596
    14
  Step:     9            Position(A)                                  Velocity(au)
C        -6.00776920    -0.98402856    -0.07106168    -0.00037240     0.00009227     0.00013881
C        -4.65742863    -0.66836252     0.09330625     0.00049430     0.00021074    -0.00007321
H        -6.71684989    -0.16951299    -0.40451370     0.00032242    -0.00000907    -0.00044793
H        -6.41425216    -1.96491893     0.17602711    -0.00009418    -0.00085754    -0.00041733
H        -4.01369798    -1.41503559     0.45676793    -0.00034108    -0.00073392    -0.00028320
C        -4.03277416     0.62522895    -0.12650537    -0.00062721    -0.00008694    -0.00006774
C        -2.63575250     0.60525966     0.18349236     0.00027078    -0.00019015     0.00001180
H        -4.40476441     1.55049122    -0.35799011     0.00071394    -0.00048745    -0.00026293
H        -2.21211759    -0.29824057     0.60827456    -0.00048640     0.00045503     0.00062497
C        -1.77727842     1.75923199     0.03971841     0.00025596    -0.00015013     0.00009079
H        -2.22263868     2.70390701    -0.21587263    -0.00164566     0.00113723    -0.00018763
N        -0.46151742     1.66364639     0.22298159     0.00007232     0.00008885    -0.00006009
H         0.13920532     2.38251128    -0.06893750    -0.00051663    -0.00021893     0.00023491
H         0.01295483     0.79737413     0.30397016     0.00078733     0.00096009     0.00037705
    14
  Step:    10            Position(A)                                  Velocity(au)
C        -6.01186883    -0.98286017    -0.06956584    -0.00037451     0.00011908     0.00013506
C        -4.65217750    -0.66581742     0.09241445     0.00046296     0.00025374    -0.00008995
H        -6.71260546    -0.17088522    -0.40909261     0.00044107    -0.00023302    -0.00038987
H        -6.41520293    -1.97422320     0.17135651    -0.00007255    -0.00081831    -0.00044031
H        -4.01622156    -1.42442539     0.45413250    -0.00012430    -0.00096554    -0.00020440
C        -4.03967731     0.62383763    -0.12713040    -0.00063428    -0.00017089    -0.00004574
C        -2.63245292     0.60343170     0.18364704     0.00033448    -0.00014060     0.00001598
H        -4.39918590     1.54759303    -0.36187633     0.00029166    -0.00001705    -0.00045349
H        -2.21727936    -0.29349791     0.61500232    -0.00044702     0.00039303     0.00061407
C        -1.77475643     1.75731959     0.04071501     0.00020074    -0.00019617     0.00009012
H        -2.24050092     2.71694623    -0.21813741    -0.00157850     0.00117521    -0.00020854
N        -0.46068853     1.66462811     0.22235710     0.00007716     0.00009070    -0.00005389
H         0.13465321     2.38190511    -0.06679203    -0.00029612     0.00013507     0.00014947
H         0.02183028     0.80642029     0.30834199     0.00083980     0.00067693     0.00042518
    14
  Step:    11            Position(A)                                  Velocity(au)
C        -6.01596222    -0.98142356    -0.06810701    -0.00037180     0.00014066     0.00013209
C        -4.64730051    -0.66281150     0.09133851     0.00042779     0.00029382    -0.00010614
H        -6.70720063    -0.17461071    -0.41304296     0.00052935    -0.00043238    -0.00033589
H        -6.41583941    -1.98282097     0.16639442    -0.00003769    -0.00073089    -0.00046977
H        -4.01641733    -1.43615862     0.45229623     0.00007363    -0.00114953    -0.00014272
C        -4.04665017     0.62149047    -0.12750611    -0.00064035    -0.00025786    -0.00002297
C        -2.62843515     0.60218388     0.18384203     0.00040043    -0.00008526     0.00001914
H        -4.39838379     1.55011818    -0.36791110    -0.00014122     0.00046291    -0.00064510
H        -2.22189699    -0.28964239     0.62170849    -0.00038802     0.00029626     0.00061973
C        -1.77288679     1.75494047     0.04168990     0.00013817    -0.00023543     0.00008704
H        -2.25717133     2.72961700    -0.22043483    -0.00143374     0.00108145    -0.00019676
N        -0.45982937     1.66563065     0.22180259     0.00007953     0.00009296    -0.00004780
H         0.13272707     2.38546623    -0.06566765    -0.00005502     0.00051954     0.00005696
H         0.03132704     0.81218325     0.31327170     0.00089291     0.00037757     0.00047705
    14
  Step:    12            Position(A)                                  Velocity(au)
C        -6.02000262    -0.97978300    -0.06667621    -0.00036483     0.00015600     0.00013003
C        -4.64281875    -0.65938945     0.09009235     0.00039153     0.00032820    -0.00012042
H        -6.70102481    -0.18034432    -0.41644087     0.00057732    -0.00059368    -0.00029186
H        -6.41602743    -1.99021281     0.16107944     0.00000792    -0.00060192    -0.00050376
H        -4.01461069    -1.44957366     0.45101012     0.00023449    -0.00126418    -0.00010743
C        -4.05368628     0.61819646    -0.12763286    -0.00064487    -0.00033980    -0.00000098
C        -2.62369281     0.60156641     0.18406575     0.00046425    -0.00002700     0.00002118
H        -4.40227541     1.55772011    -0.37598903    -0.00055084     0.00087380    -0.00081708
H        -2.22576809    -0.28701655     0.62856016    -0.00031251     0.00017355     0.00063803
C        -1.77173375     1.75216914     0.04261912     0.00007139    -0.00026764     0.00008195
H        -2.27186674     2.74060498    -0.22244194    -0.00122504     0.00088099    -0.00015890
N        -0.45894876     1.66666182     0.22131148     0.00008292     0.00009630    -0.00004273
H         0.13344964     2.39327109    -0.06554596     0.00016944     0.00088663    -0.00002526
H         0.04136442     0.81468031     0.31877830     0.00093038     0.00009701     0.00052818
    14
  Step:    13            Position(A)                                  Velocity(au)
C        -6.02394364    -0.97801087    -0.06526230    -0.00035325     0.00016462     0.00012913
C        -4.63873509    -0.65563155     0.08870414     0.00035495     0.00035364    -0.00013169
H        -6.69457055    -0.18759861    -0.41942805     0.00057641    -0.00070481    -0.00026370
H        -6.41566623    -1.99598920     0.15537376     0.00006090    -0.00044071    -0.00053996
H        -4.01128743    -1.46381487     0.44994589     0.00034776    -0.00129675    -0.00010339
C        -4.06075800     0.61405661    -0.12752745    -0.00064560    -0.00040911     0.00001887
C        -2.61827874     0.60159310     0.18430539     0.00052098     0.00003086     0.00002211
H        -4.41043453     1.56923412    -0.38578629    -0.00091121     0.00115373    -0.00095221
H        -2.22873367    -0.28584575     0.63566661    -0.00022518     0.00003708     0.00066273
C        -1.77132506     1.74908543     0.04348279     0.00000362    -0.00029242     0.00007523
H        -2.28397133     2.74889038    -0.22391107    -0.00096788     0.00060041    -0.00010176
N        -0.45801524     1.66773742     0.22086771     0.00009067     0.00010141    -0.00003943
H         0.13643382     2.40486303    -0.06622026     0.00034369     0.00119184    -0.00008192
H         0.05168079     0.81430557     0.32482658     0.00093718    -0.00013388     0.00057367
    14
  Step:    14            Position(A)                                  Velocity(au)
C        -6.02773059    -0.97618163    -0.06385123    -0.00033625     0.00016659     0.00012961
C        -4.63505355    -0.65165281     0.08721147     0.00031757     0.00036746    -0.00013933
H        -6.68841481    -0.19576340    -0.42220971     0.00052051    -0.00075643    -0.00025656
H        -6.41469510    -1.99985408     0.14926683     0.00011745    -0.00025828    -0.00057579
H        -4.00700273    -1.47794247     0.44874818     0.00041061    -0.00124422    -0.00013101
C        -4.06781007     0.60924634    -0.12722003    -0.00064039    -0.00046045     0.00003556
C        -2.61229548     0.60224158     0.18454953     0.00056710     0.00008526     0.00002223
H        -4.42220994     1.58296023    -0.39682042    -0.00120778     0.00126987    -0.00103973
H        -2.23069425    -0.28620526     0.64305875    -0.00013180    -0.00009873     0.00068629
C        -1.77165463     1.74577179     0.04426499    -0.00006223    -0.00030978     0.00006725
H        -2.29304089     2.75374013    -0.22466822    -0.00067750     0.00026478    -0.00003190
N        -0.45696518     1.66888038     0.22044892     0.00010497     0.00010880    -0.00003828
H         0.14096852     2.41934496    -0.06733820     0.00044465     0.00140263    -0.00010280
H         0.06186713     0.81175151     0.33132836     0.00090267    -0.00029324     0.00060923
    14
  Step:    15            Position(A)                                  Velocity(au)
C        -6.03129985    -0.97436631    -0.06242690    -0.00031323     0.00016250     0.00013155
C        -4.63178762    -0.64759265     0.08565605     0.00027841     0.00036791    -0.00014315
H        -6.68318330    -0.20414702    -0.42504086     0.00040756    -0.00074387    -0.00027384
H        -6.41309681    -2.00163959     0.14277725     0.00017354    -0.00006679    -0.00060858
H        -4.00230453    -1.49103447     0.44707983     0.00042613    -0.00111180    -0.00018714
C        -4.07476770     0.60398342    -0.12674948    -0.00062776    -0.00049123     0.00004852
C        -2.60587229     0.60345843     0.18479174     0.00060093     0.00013357     0.00002208
H        -4.43685705     1.59701490    -0.40853239    -0.00143668     0.00121863    -0.00107609
H        -2.23161714    -0.28800569     0.65068052    -0.00003831    -0.00021927     0.00070089
C        -1.77268650     1.74230832     0.04495395    -0.00012355    -0.00032003     0.00005837
H        -2.29879293     2.75468284    -0.22460898    -0.00036808    -0.00010317     0.00004459
N        -0.45571893     1.67011767     0.22003035     0.00012649     0.00011865    -0.00003933
H         0.14616140     2.43554820    -0.06846914     0.00046269     0.00150279    -0.00008399
H         0.07142841     0.80789041     0.33815468     0.00082221    -0.00037040     0.00063192
    14
  Step:    16            Position(A)                                  Velocity(au)
C        -6.03458304    -0.97262663    -0.06097334    -0.00028401     0.00015351     0.00013481
C        -4.62896275    -0.64360407     0.08407988     0.00023639     0.00035413    -0.00014322
H        -6.67949866    -0.21203709    -0.42820043     0.00024093    -0.00066897    -0.00031595
H        -6.41089867    -2.00131531     0.13595294     0.00022513     0.00012099    -0.00063572
H        -3.99768023    -1.50226531     0.44465409     0.00040113    -0.00091056    -0.00026639
C        -4.08154348     0.59849982    -0.12615852    -0.00060679    -0.00050100     0.00005757
C        -2.59914891     0.60516371     0.18503262     0.00062191     0.00017357     0.00002233
H        -4.45364011     1.60962013    -0.42036203    -0.00160145     0.00101758    -0.00106355
H        -2.23153236    -0.29100223     0.65839206     0.00005016    -0.00031177     0.00069952
C        -1.77435762     1.73877058     0.04554202    -0.00017796    -0.00032362     0.00004898
H        -2.30109324     2.75148318    -0.22369274    -0.00005274    -0.00048248     0.00012201
N        -0.45419804     1.67147610     0.21958857     0.00015447     0.00013079    -0.00004234
H         0.15109075     2.45222127    -0.06917556     0.00040072     0.00149198    -0.00002748
H         0.07985449     0.80364840     0.34515280     0.00069738    -0.00036542     0.00064038
    14
  Step:    17            Position(A)                                  Velocity(au)
C        -6.03751321    -0.97100803    -0.05947778    -0.00024907     0.00014144     0.00013891
C        -4.62661613    -0.63984528     0.08252281     0.00019053     0.00032600    -0.00013982
H        -6.67791252    -0.21878203    -0.43195298     0.00003057    -0.00054136    -0.00037945
H        -6.40817173    -1.99899260     0.12886967     0.00026833     0.00029217    -0.00065479
H        -3.99352908    -1.51095480     0.44125202     0.00034416    -0.00065498    -0.00036225
C        -4.08804241     0.59302302    -0.12549003    -0.00057701    -0.00049066     0.00006280
C        -2.59226675     0.60725569     0.18528019     0.00063007     0.00020351     0.00002359
H        -4.47189179     1.61927631    -0.43179967    -0.00170933     0.00069506    -0.00100788
H        -2.23051984    -0.29482623     0.66598388     0.00012988    -0.00036699     0.00067688
C        -1.77657971     1.73522854     0.04602556    -0.00022323    -0.00032113     0.00003945
H        -2.29994662     2.74412771    -0.22193968     0.00025595    -0.00085287     0.00019485
N        -0.45233957     1.67297897     0.21910417     0.00018709     0.00014481    -0.00004687
H         0.15492787     2.46818818    -0.06907022     0.00027090     0.00138223     0.00006049
H         0.08668499     0.79989607     0.35216426     0.00053508    -0.00028720     0.00063483
    14
  Step:    18            Position(A)                                  Velocity(au)
C        -6.04003202    -0.96953237    -0.05793440    -0.00020949     0.00012870     0.00014308
C        -4.62479457    -0.63647229     0.08102109     0.00014012     0.00028404    -0.00013332
H        -6.67882997    -0.22388045    -0.43650162    -0.00020723    -0.00037816    -0.00045672
H        -6.40502838    -1.99492345     0.12162809     0.00029956     0.00043422    -0.00066372
H        -3.99015100    -1.51659425     0.43672917     0.00026437    -0.00036124    -0.00046790
C        -4.09416673     0.58776559    -0.12478471    -0.00053842    -0.00046187     0.00006446
C        -2.58536496     0.60961597     0.18554863     0.00062572     0.00022213     0.00002634
H        -4.49103496     1.62482584    -0.44241125    -0.00176860     0.00028229    -0.00091630
H        -2.22869098    -0.29903092     0.67320013     0.00019882    -0.00038009     0.00062995
C        -1.77924128     1.73174525     0.04640504    -0.00025735    -0.00031330     0.00003015
H        -2.29549378     2.73282509    -0.21943005     0.00054544    -0.00119347     0.00025746
N        -0.45010503     1.67464403     0.21856318     0.00022192     0.00016015    -0.00005242
H         0.15701713     2.48246017    -0.06785232     0.00009083     0.00119348     0.00017126
H         0.09156028     0.79736539     0.35904095     0.00034596    -0.00015074     0.00061680
    14
  Step:    19            Position(A)                                  Velocity(au)
C        -6.04209617    -0.96819257    -0.05634762    -0.00016685     0.00011799     0.00014629
C        -4.62355072    -0.63363132     0.07960608     0.00008485     0.00022952    -0.00012423
H        -6.68244615    -0.22705509    -0.44194457    -0.00045163    -0.00020167    -0.00053684
H        -6.40161833    -1.98949316     0.11434960     0.00031571     0.00053578    -0.00066087
H        -3.98774555    -1.51885770     0.43101589     0.00017074    -0.00004616    -0.00057662
C        -4.09982148     0.58291870    -0.12407976    -0.00049151    -0.00041682     0.00006294
C        -2.57857803     0.61211523     0.18585646     0.00060934     0.00022870     0.00003089
H        -4.51058330     1.62545183    -0.45184549    -0.00178720    -0.00019088    -0.00079633
H        -2.22617030    -0.30314151     0.67976534     0.00025648    -0.00035063     0.00055812
C        -1.78220974     1.72837457     0.04668525    -0.00027850    -0.00030115     0.00002152
H        -2.28801404     2.71801835    -0.21630719     0.00080263    -0.00148163     0.00030378
N        -0.44748468     1.67648267     0.21795730     0.00025628     0.00017625    -0.00005849
H         0.15691491     2.49429789    -0.06532362    -0.00011945     0.00095000     0.00029528
H         0.09425342     0.79659831     0.36565799     0.00014297     0.00002524     0.00058888
    14
  Step:    20            Position(A)                                  Velocity(au)
C        -6.04368223    -0.96695110    -0.05473414    -0.00012307     0.00011193     0.00014741
C        -4.62293826    -0.63145106     0.07830331     0.00002485     0.00016441    -0.00011312
H        -6.68871019    -0.22829240    -0.44824595    -0.00068031    -0.00003557    -0.00060732
H        -6.39812170    -1.98320223     0.10717031     0.00031449     0.00058780    -0.00064527
H        -3.98641572    -1.51760419     0.42411439     0.00007201     0.00027324    -0.00068200
C        -4.10491949     0.57864683    -0.12340778    -0.00043720    -0.00035820     0.00005869
C        -2.57203445     0.61461930     0.18622442     0.00058157     0.00022308     0.00003734
H        -4.53013338     1.62064995    -0.45983252    -0.00177230    -0.00069731    -0.00065524
H        -2.22308007    -0.30670169     0.68541017     0.00030359    -0.00028212     0.00046300
C        -1.78533398     1.72515698     0.04687589    -0.00028513    -0.00028614     0.00001403
H        -2.27793465     2.70041150    -0.21278437     0.00101363    -0.00169230     0.00032707
N        -0.44449838     1.67849976     0.21728360     0.00028753     0.00019249    -0.00006461