    14
  Step:     0            Position(A)                                  Velocity(au)
C        -6.02630276    -0.63011272    -0.08341297     0.00018346    -0.00003407     0.00005746
C        -4.72059712    -0.75882290     0.11309898    -0.00033990     0.00004593    -0.00015123
H        -6.52887016     0.24379383    -0.47679873    -0.00005705    -0.00026051     0.00006275
H        -6.57689170    -1.51805162    -0.06072726     0.00070990    -0.00003021     0.00024137
H        -4.32990129    -1.78755745     0.32815643    -0.00077012     0.00037799     0.00039395
C        -3.85796054     0.36609073    -0.00558824     0.00023411     0.00010136     0.00008237
C        -2.48287566     0.38015780     0.13250850     0.00014309    -0.00016083    -0.00010778
H        -4.21526665     1.37225280    -0.39431887    -0.00020332     0.00052826    -0.00059659
H        -1.94825682    -0.52875638     0.47485383    -0.00007245    -0.00065045     0.00046671
C        -1.85635563     1.60263667    -0.01747643    -0.00050684    -0.00014974     0.00000359
H        -2.45137801     2.48351964    -0.28573676     0.00106024    -0.00025365     0.00035837
N        -0.58509429     1.93491056     0.23984231     0.00026732     0.00020284     0.00011633
H        -0.19353957     2.88341012     0.06333820    -0.00066135     0.00072965    -0.00079212
H         0.14029184     1.16525720     0.37419408    -0.00031169    -0.00090813    -0.00037350
    14
  Step:     1            Position(A)                                  Velocity(au)
C        -6.02465905    -0.63044268    -0.08291587     0.00011425    -0.00002582     0.00003291
C        -4.72386476    -0.75833873     0.11151343    -0.00025408     0.00004405    -0.00013799
H        -6.52942402     0.24143533    -0.47581437    -0.00004628    -0.00016831     0.00011629
H        -6.57087909    -1.51986525    -0.05781038     0.00038433    -0.00030449     0.00029182
H        -4.33826282    -1.78218705     0.33251828    -0.00074988     0.00058971     0.00040455
C        -3.85586382     0.36725760    -0.00483736     0.00014777     0.00011210     0.00005417
C        -2.48083902     0.37828574     0.13145642     0.00022794    -0.00018286    -0.00008399
H        -4.21805842     1.37651055    -0.40002461    -0.00029714     0.00023578    -0.00043965
H        -1.94916190    -0.53522410     0.47964619    -0.00009616    -0.00051905     0.00040344
C        -1.86196652     1.60116425    -0.01747676    -0.00051137    -0.00011964    -0.00000212
H        -2.44009253     2.48035119    -0.28187408     0.00097231    -0.00029879     0.00033705
N        -0.58183971     1.93704519     0.24114733     0.00032371     0.00018623     0.00012142
H        -0.20152864     2.89014525     0.05481827    -0.00079252     0.00049046    -0.00076153
H         0.13532520     1.15715018     0.36993112    -0.00059029    -0.00056175    -0.00040621
    14
  Step:     2            Position(A)                                  Velocity(au)
C        -6.02380331    -0.63067751    -0.08269305     0.00003966    -0.00001811     0.00000759
C        -4.72615554    -0.75785915     0.11008012    -0.00016282     0.00004562    -0.00012371
H        -6.52988272     0.24011166    -0.47425473    -0.00003998    -0.00007206     0.00016780
H        -6.56848371    -1.52471300    -0.05434311     0.00006009    -0.00056767     0.00034106
H        -4.34630640    -1.77465636     0.33700679    -0.00070957     0.00076631     0.00041887
C        -3.85472788     0.36854306    -0.00440322     0.00005930     0.00012228     0.00002481
C        -2.47788902     0.37615749     0.13067100     0.00030942    -0.00020666    -0.00005940
H        -4.22176711     1.37741094    -0.40393716    -0.00037322    -0.00007661    -0.00027229
H        -1.95036058    -0.54011160     0.48367993    -0.00012255    -0.00036767     0.00033027
C        -1.86754279     1.60001937    -0.01752292    -0.00050083    -0.00009059    -0.00000462
H        -2.43010691     2.47698310    -0.27836312     0.00082363    -0.00028826     0.00029397
N        -0.57801258     1.93898476     0.24249859     0.00037073     0.00016755     0.00012470
H        -0.21087738     2.89413981     0.04667829    -0.00090499     0.00024043    -0.00072470
H         0.12737814     1.15296783     0.36530742    -0.00084343    -0.00020573    -0.00043697
    14
  Step:     3            Position(A)                                  Velocity(au)
C        -6.02379146    -0.63083881    -0.08274976    -0.00003949    -0.00001360    -0.00001789
C        -4.72742672    -0.75734072     0.10880709    -0.00006936     0.00005158    -0.00010902
H        -6.53029867     0.23985879    -0.47214341    -0.00003867     0.00002656     0.00021703
H        -6.56956462    -1.53228420    -0.05034908    -0.00024135    -0.00078763     0.00038715
H        -4.35378598    -1.76542251     0.34168184    -0.00064473     0.00089514     0.00044033
C        -3.85456644     0.36993275    -0.00429451    -0.00002940     0.00013047    -0.00000496
C        -2.47406988     0.37376464     0.13015702     0.00038611    -0.00023023    -0.00003475
H        -4.22622342     1.37483454    -0.40598156    -0.00043623    -0.00039099    -0.00010174
H        -1.95184295    -0.54326754     0.48687158    -0.00014452    -0.00020882     0.00025195
C        -1.87292311     1.59918248    -0.01757793    -0.00047618    -0.00006379    -0.00000371
H        -2.42207404     2.47404501    -0.27544292     0.00061885    -0.00022183     0.00023007
N        -0.57372931     1.94071074     0.24387548     0.00040601     0.00014766     0.00012608
H        -0.22132694     2.89540504     0.03896407    -0.00098952     0.00000287    -0.00068593
H         0.11687361     1.15264941     0.36037149    -0.00104522     0.00012905    -0.00046109
    14
  Step:     4            Position(A)                                  Velocity(au)
C        -6.02466722    -0.63097507    -0.08308449    -0.00012179    -0.00001435    -0.00004293
C        -4.72767295    -0.75673069     0.10769506     0.00002285     0.00006264    -0.00009460
H        -6.53072880     0.24069271    -0.46950687    -0.00004260     0.00012554     0.00026371
H        -6.57376371    -1.54194385    -0.04587336    -0.00050314    -0.00093954     0.00042825
H        -4.36041110    -1.75507343     0.34663981    -0.00055198     0.00096566     0.00047197
C        -3.85537111     0.37139742    -0.00451177    -0.00011624     0.00013536    -0.00003439
C        -2.46944206     0.37112082     0.12991087     0.00045649    -0.00025161    -0.00001080
H        -4.23131042     1.36885724    -0.40616283    -0.00049114    -0.00068943     0.00006462
H        -1.95352214    -0.54467984     0.48919191    -0.00015521    -0.00005525     0.00017355
C        -1.87796008     1.59862385    -0.01760403    -0.00043895    -0.00003978     0.00000055
H        -2.41656848     2.47213012    -0.27332986     0.00036780    -0.00010707     0.00014870
N        -0.56913039     1.94221508     0.24525677     0.00042751     0.00012762     0.00012552
H        -0.23252503     2.89420260     0.03167219    -0.00103852    -0.00020039    -0.00064980
H         0.10451196     1.15579109     0.35522024    -0.00117105     0.00041099    -0.00047444
    14
  Step:     5            Position(A)                                  Velocity(au)
C        -6.02645577    -0.63115282    -0.08368898    -0.00020533    -0.00002153    -0.00006693
C        -4.72692679    -0.75597025     0.10673760     0.00011048     0.00007914    -0.00008104
H        -6.53123061     0.24260523    -0.46637421    -0.00005161     0.00022245     0.00030769
H        -6.58057179    -1.55283846    -0.04098039    -0.00071488    -0.00100901     0.00046273
H        -4.36586163    -1.74429677     0.35200719    -0.00042964     0.00097111     0.00051601
C        -3.85710945     0.37289393    -0.00504695    -0.00019899     0.00013569    -0.00006268
C        -2.46408325     0.36826009     0.12992076     0.00051898    -0.00026906     0.00001172
H        -4.23696807     1.35975192    -0.40456792    -0.00054344    -0.00095374     0.00021918
H        -1.95523838    -0.54447623     0.49066836    -0.00014824     0.00008042     0.00010028
C        -1.88252591     1.59831216    -0.01756588    -0.00039107    -0.00001830     0.00000780
H        -2.41402778     2.47170267    -0.27218981     0.00008524     0.00004043     0.00005560
N        -0.56437675     1.94350275     0.24662156     0.00043358     0.00010869     0.00012311
H        -0.24404660     2.89102119     0.02474847    -0.00104654    -0.00035046    -0.00062081
H         0.09125466     1.16164052     0.34999219    -0.00119890     0.00060931    -0.00047372
    14
  Step:     6            Position(A)                                  Velocity(au)
C        -6.02915914    -0.63144602    -0.08454875    -0.00028790    -0.00003535    -0.00008938
C        -4.72525593    -0.75499944     0.10592210     0.00019059     0.00010089    -0.00006884
H        -6.53185777     0.24555923    -0.46277563    -0.00006514     0.00031446     0.00034892
H        -6.58940303    -1.56401781    -0.03575026    -0.00087274    -0.00099241     0.00048943
H        -4.36981026    -1.73382850     0.35792854    -0.00027834     0.00091020     0.00057330
C        -3.85972437     0.37436582    -0.00588309    -0.00027546     0.00013024    -0.00008901
C        -2.45808830     0.36523468     0.13016717     0.00057210    -0.00028104     0.00003213
H        -4.24319930     1.34799230    -0.40136775    -0.00059920    -0.00116540     0.00035422
H        -1.95676527    -0.54292047     0.49138563    -0.00011800     0.00018627     0.00003722
C        -1.88651553     1.59822339    -0.01743330    -0.00033469     0.00000162     0.00001749
H        -2.41470376     2.47301454    -0.27211344    -0.00021054     0.00019877    -0.00004164
N        -0.55964510     1.94459297     0.24795003     0.00042312     0.00009212     0.00011897
H        -0.25542013     2.88653556     0.01809068    -0.00101078    -0.00043324    -0.00060297
H         0.07828369     1.16912097     0.34485663    -0.00111233     0.00069793    -0.00045691
    14
  Step:     7            Position(A)                                  Velocity(au)
C        -6.03275405    -0.63192611    -0.08564423    -0.00036723    -0.00005524    -0.00010985
C        -4.72275727    -0.75376315     0.10523155     0.00026085     0.00012710    -0.00005828
H        -6.53265575     0.24948459    -0.45874095    -0.00008225     0.00039843     0.00038753
H        -6.59966465    -1.57454933    -0.03027311    -0.00097829    -0.00089508     0.00050770
H        -4.37195084    -1.72438433     0.36454913    -0.00010151     0.00078871     0.00064283
C        -3.86313557     0.37574319    -0.00699411    -0.00034363     0.00011785    -0.00011256
C        -2.45156740     0.36211182     0.13062370     0.00061461    -0.00028636     0.00004988
H        -4.25007667     1.33425656    -0.39681866    -0.00066487    -0.00130619     0.00046213
H        -1.95781988    -0.54040131     0.49148268    -0.00006004     0.00025188    -0.00001105
C        -1.88984788     1.59834760    -0.01718327    -0.00027199     0.00002139     0.00002891
H        -2.41863382     2.47605108    -0.27310071    -0.00049988     0.00034326    -0.00013464
N        -0.55512013     1.94551804     0.24922417     0.00039600     0.00007886     0.00011330
H        -0.26615931     2.88154313     0.01155733    -0.00093151    -0.00044152    -0.00059910
H         0.06692035     1.17690912     0.33999649    -0.00090495     0.00066154    -0.00042386
    14
  Step:     8            Position(A)                                  Velocity(au)
C        -6.03719308    -0.63265459    -0.08695203    -0.00044129    -0.00008009    -0.00012809
C        -4.71954933    -0.75221885     0.10464709     0.00031973     0.00015629    -0.00004938
H        -6.53365721     0.25427558    -0.45429771    -0.00010170     0.00047109     0.00042386
H        -6.61080496    -1.58359946    -0.02464345    -0.00103683    -0.00072851     0.00051733
H        -4.37203090    -1.71657404     0.37199171     0.00009441     0.00062024     0.00072138
C        -3.86724201     0.37694408    -0.00834544    -0.00040183     0.00009753    -0.00013262
C        -2.44464247     0.35897009     0.13125846     0.00064566    -0.00028419     0.00006455
H        -4.25774454     1.31941682    -0.39125781    -0.00074678    -0.00135973     0.00053606
H        -1.95807875    -0.53741007     0.49114391     0.00002828     0.00026968    -0.00004112
C        -1.89246574     1.59869131    -0.01680084    -0.00020501     0.00004243     0.00004136
H        -2.42563966     2.48052393    -0.27505894    -0.00076431     0.00045084    -0.00021548
N        -0.55098188     1.94631809     0.25042862     0.00035336     0.00006918     0.00010636
H        -0.27579869     2.87687641     0.00498428    -0.00081230    -0.00037690    -0.00061011
H         0.05848626     1.18359349     0.33558393    -0.00058533     0.00050278    -0.00037680
    14
  Step:     9            Position(A)                                  Velocity(au)
C        -6.04240807    -0.63367818    -0.08844652    -0.00050838    -0.00010841    -0.00014394
C        -4.71576264    -0.75034409     0.10415124     0.00036649     0.00018633    -0.00004189
H        -6.53488067     0.25979067    -0.44946828    -0.00012214     0.00052928     0.00045838
H        -6.62234736    -1.59048688    -0.01895545    -0.00105597    -0.00050775     0.00051860
H        -4.36988534    -1.71081549     0.38033074     0.00030036     0.00042523     0.00080345
C        -3.87192628     0.37787686    -0.00989538    -0.00044876     0.00006869    -0.00014867
C        -2.43744233     0.35589458     0.13203587     0.00066486    -0.00027421     0.00007590
H        -4.26641381     1.30450987    -0.38509139    -0.00085001    -0.00131416     0.00057108
H        -1.95720119    -0.53450154     0.49058312     0.00014718     0.00023624    -0.00005126
C        -1.89433292     1.59927573    -0.01627842    -0.00013555     0.00006583     0.00005422
H        -2.43535457     2.48591401    -0.27781481    -0.00098873     0.00050397    -0.00027782
N        -0.54738965     1.94703141     0.25155103     0.00029790     0.00006239     0.00009844
H        -0.28392982     2.87329782    -0.00178989    -0.00065976    -0.00025062    -0.00063442
H         0.05411504     1.18790841     0.33175321    -0.00017988     0.00024702    -0.00032037
    14
  Step:    10            Position(A)                                  Velocity(au)
C        -6.04831495    -0.63502632    -0.09010104    -0.00056731    -0.00013860    -0.00015736
C        -4.71153155    -0.74814247     0.10373066     0.00040112     0.00021472    -0.00003533
H        -6.53632915     0.26585468    -0.44426967    -0.00014216     0.00057015     0.00049154
H        -6.63390623    -1.59470737    -0.01329797    -0.00104434    -0.00024940     0.00051221
H        -4.36545996    -1.70727124     0.38956871     0.00050575     0.00022818     0.00088177
C        -3.87705948     0.37844670    -0.01159798    -0.00048366     0.00003147    -0.00016053
C        -2.43009733     0.35297119     0.13291903     0.00067233    -0.00025666     0.00008395
H        -4.27634021     1.29066709    -0.37876445    -0.00097684    -0.00116582     0.00056576
H        -1.95485898    -0.53224179     0.49002244     0.00029382     0.00015367    -0.00004199
C        -1.89543108     1.60013145    -0.01561468    -0.00006504     0.00009215     0.00006700
H        -2.44726994     2.49154923    -0.28113682    -0.00116272     0.00049295    -0.00031759
N        -0.54446466     1.94768294     0.25258211     0.00023370     0.00005687     0.00008976
H        -0.29023223     2.87139358    -0.00889484    -0.00048298    -0.00008294    -0.00066777
H         0.05455100     1.18899749     0.32857526     0.00026892    -0.00005894    -0.00026090
    14
  Step:    11            Position(A)                                  Velocity(au)
C        -6.05481901    -0.63671038    -0.09188910    -0.00061727    -0.00016901    -0.00016840
C        -4.70698728    -0.74564660     0.10337839     0.00042408     0.00023884    -0.00002906
H        -6.53799072     0.27226389    -0.43871490    -0.00016055     0.00059150     0.00052372
H        -6.64519423    -1.59594306    -0.00774978    -0.00101108     0.00002936     0.00049916
H        -4.35882107    -1.70582364     0.39962115     0.00069985     0.00005371     0.00094839
C        -3.88250733     0.37856541    -0.01340734    -0.00050636    -0.00001287    -0.00016845
C        -2.42273387     0.35027966     0.13387251     0.00066867    -0.00023241     0.00008897
H        -4.28778411     1.27900541    -0.37271441    -0.00112485    -0.00092284     0.00052348
H        -1.95077325    -0.53113964     0.48966458     0.00046199     0.00003050    -0.00001647
C        -1.89575575     1.60129180    -0.01481276     0.00000538     0.00012134     0.00007936
H        -2.46079129     2.49669832    -0.28476271    -0.00128088     0.00041634    -0.00033317
N        -0.54227693     1.94827564     0.25351478     0.00016567     0.00005057     0.00008047
H        -0.29449589     2.87148330    -0.01639874    -0.00029245     0.00009943    -0.00070358
H         0.05999824     1.18661891     0.32604551     0.00070964    -0.00035594    -0.00020512
    14
  Step:    12            Position(A)                                  Velocity(au)
C        -6.06181901    -0.63872368    -0.09378521    -0.00065786    -0.00019801    -0.00017720
C        -4.70225393    -0.74291738     0.10309487     0.00043612     0.00025628    -0.00002243
H        -6.53984153     0.27879495    -0.43281238    -0.00017638     0.00059200     0.00055518
H        -6.65602544    -1.59406500    -0.00237794    -0.00096554     0.00031137     0.00048072
H        -4.35014936    -1.70609617     0.41031655     0.00087315    -0.00007734     0.00099591
C        -3.88813699     0.37816509    -0.01528324    -0.00051730    -0.00006186    -0.00017320
C        -2.41546891     0.34788687     0.13486541     0.00065495    -0.00020289     0.00009148
H        -4.30094852     1.27047827    -0.36731242    -0.00128567    -0.00060700     0.00045298
H        -1.94475202    -0.53157465     0.48966212     0.00064232    -0.00011866     0.00001955
C        -1.89531342     1.60278593    -0.01387847     0.00007484     0.00015278     0.00009114
H        -2.47529165     2.50065748    -0.28842557    -0.00134217     0.00027956    -0.00032505
N        -0.54084036     1.94878927     0.25434252     0.00009865     0.00004169     0.00007052
H        -0.29663022     2.87356879    -0.02428704    -0.00009894     0.00026743    -0.00073387
H         0.07007564     1.18121066     0.32408786     0.00109246    -0.00058666    -0.00015861
    14
  Step:    13            Position(A)                                  Velocity(au)
C        -6.06921095    -0.64104220    -0.09576566    -0.00068889    -0.00022408    -0.00018393
C        -4.69744627    -0.74003994     0.10288760     0.00043807     0.00026513    -0.00001487
H        -6.54184941     0.28521512    -0.42656925    -0.00018909     0.00057137     0.00058593
H        -6.66631737    -1.58913121     0.00276685    -0.00091727     0.00057967     0.00045861
H        -4.33971916    -1.70751550     0.42140855     0.00101848    -0.00015090     0.00101858
C        -3.89382428     0.37721201    -0.01719642    -0.00051753    -0.00011190    -0.00017594
C        -2.40840549     0.34584105     0.13587377     0.00063257    -0.00016996     0.00009217
H        -4.31591057     1.26572611    -0.36280466    -0.00144513    -0.00025210     0.00036749
H        -1.93672138    -0.53373561     0.49009235     0.00082319    -0.00027475     0.00005852
C        -1.89411848     1.60463409    -0.01281885     0.00014269     0.00018549     0.00010227
H        -2.49015380     2.50281433    -0.29187389    -0.00134898     0.00009301    -0.00029534
N        -0.54011871     1.94918760     0.25505745     0.00003668     0.00002933     0.00005972
H        -0.29666035     2.87733388    -0.03245359     0.00008768     0.00039439    -0.00075059
H         0.08389782     1.17378461     0.32257569     0.00137913    -0.00070907    -0.00012468
    14
  Step:    14            Position(A)                                  Velocity(au)
C        -6.07688975    -0.64362576    -0.09780896    -0.00071029    -0.00024580    -0.00018880
C        -4.69267026    -0.73711713     0.10276960     0.00043066     0.00026409    -0.00000595
H        -6.54397829     0.29129468    -0.41999414    -0.00019854     0.00053046     0.00061568
H        -6.67609257    -1.58138369     0.00765497    -0.00087591     0.00081767     0.00043490
H        -4.32786826    -1.70939736     0.43259983     0.00113146    -0.00016092     0.00101304
C        -3.89945898     0.37571712    -0.01913217    -0.00050846    -0.00015873    -0.00017803
C        -2.40163026     0.34416867     0.13688191     0.00060307    -0.00013559     0.00009182
H        -4.33256344     1.26496310    -0.35927282    -0.00158531     0.00010141     0.00028227
H        -1.92674311    -0.53758532     0.49094244     0.00099224    -0.00041714     0.00009222
C        -1.89219192     1.60684385    -0.01164117     0.00020833     0.00021822     0.00011275
H        -2.50480321     2.50269235    -0.29488664    -0.00130615    -0.00012996    -0.00024720
N        -0.54003795     1.94943087     0.25564906    -0.00001752     0.00001373     0.00004784
H        -0.29471210     2.88219678    -0.04070756     0.00025924     0.00046017    -0.00074700
H         0.10024671     1.16569842     0.32136027     0.00154846    -0.00070357    -0.00010418
    14
  Step:    15            Position(A)                                  Velocity(au)
C        -6.08474990    -0.64641950    -0.09989612    -0.00072202    -0.00026194    -0.00019206
C        -4.68802470    -0.73426244     0.10275733     0.00041445     0.00025247     0.00000452
H        -6.54619293     0.29682001    -0.41310000    -0.00020501     0.00047135     0.00064392
H        -6.68547965    -1.57124322     0.01228107    -0.00085104     0.00100958     0.00041195
H        -4.31496639    -1.71103593     0.44357084     0.00121041    -0.00010875     0.00097849
C        -3.90494772     0.37373957    -0.02109107    -0.00049158    -0.00019816    -0.00018076
C        -2.39521208     0.34287475     0.13788259     0.00056809    -0.00010158     0.00009114
H        -4.35059229     1.26794468    -0.35662954    -0.00168813     0.00041430     0.00021130
H        -1.91501420    -0.54286126     0.49210979     0.00113794    -0.00052687     0.00011311
C        -1.88956080     1.60940801    -0.01035223     0.00027123     0.00024956     0.00012265
H        -2.51872826     2.49997113    -0.29728181    -0.00122005    -0.00037474    -0.00018443
N        -0.54050194     1.94948790     0.25610404    -0.00006254    -0.00000398     0.00003465
H        -0.29098900     2.88740099    -0.04879560     0.00040982     0.00045368    -0.00071877
H         0.11777344     1.15839271     0.32029657     0.00159639    -0.00057240    -0.00009594
    14
  Step:    16            Position(A)                                  Velocity(au)
C        -6.09268528    -0.64935610    -0.10201070    -0.00072399    -0.00027149    -0.00019393
C        -4.68360338    -0.73159380     0.10286858     0.00038979     0.00023014     0.00001660
H        -6.54846319     0.30160632    -0.40590706    -0.00020910     0.00039717     0.00066985
H        -6.69471074    -1.55929714     0.01666715    -0.00085176     0.00114120     0.00039235
H        -4.30138829    -1.71177653     0.45400625     0.00125587    -0.00000160     0.00091635
C        -3.91021317     0.37138200    -0.02308655    -0.00046820    -0.00022675    -0.00018508
C        -2.38920228     0.34194635     0.13887581     0.00052912    -0.00006932     0.00009069
H        -4.36949451     1.27402681    -0.35465030    -0.00173907     0.00065592     0.00016456
H        -1.90184840    -0.54911169     0.49341702     0.00125108    -0.00058951     0.00011555
C        -1.88625823     1.61230347    -0.00895796     0.00033082     0.00027805     0.00013206
H        -2.53149417     2.49449418    -0.29892141    -0.00109816    -0.00062636    -0.00011118
N        -0.54140604     1.94934371     0.25640716    -0.00009805    -0.00002222     0.00002007
H        -0.28574648     2.89212192    -0.05643204     0.00053583     0.00037343    -0.00066444
H         0.13517075     1.15317614     0.31926150     0.00153216    -0.00033386    -0.00009750
    14
  Step:    17            Position(A)                                  Velocity(au)
C        -6.10058863    -0.65235876    -0.10413863    -0.00071614    -0.00027379    -0.00019459
C        -4.67949720    -0.72922778     0.10312038     0.00035694     0.00019744     0.00003012
H        -6.55076747     0.30550894    -0.39844565    -0.00021174     0.00031204     0.00069246
H        -6.70411347    -1.54627736     0.02086444    -0.00088578     0.00120130     0.00037865
H        -4.28749184    -1.71107089     0.46361773     0.00127005     0.00014928     0.00082984
C        -3.91519052     0.36877891    -0.02514015    -0.00043928    -0.00024226    -0.00019152
C        -2.38363664     0.34135817     0.13986666     0.00048748    -0.00003963     0.00009082
H        -4.38863771     1.28229425    -0.35302953    -0.00172962     0.00080832     0.00014671
H        -1.88764442    -0.55575790     0.49463764     0.00132564    -0.00059678     0.00009640
C        -1.88232340     1.61549090    -0.00746322     0.00038653     0.00030220     0.00014108
H        -2.54275264     2.48626835    -0.29971415    -0.00094869    -0.00087015    -0.00003178
N        -0.54264693     1.94900175     0.25654306    -0.00012443    -0.00003939     0.00000416
H        -0.27926661     2.89557039    -0.06333149     0.00063590     0.00022653    -0.00058537
H         0.15129227     1.15108881     0.31816354     0.00137343    -0.00001529    -0.00010585
    14
  Step:    18            Position(A)                                  Velocity(au)
C        -6.10835230    -0.65534588    -0.10626779    -0.00069852    -0.00026872    -0.00019420
C        -4.67579465    -0.72727449     0.10352744     0.00031608     0.00015516     0.00004481
H        -6.55309548     0.30843279    -0.39075807    -0.00021402     0.00022079     0.00071057
H        -6.71408888    -1.53301639     0.02495091    -0.00095800     0.00118381     0.00037301
H        -4.27360342    -1.70851071     0.47216054     0.00125626     0.00033035     0.00072341
C        -3.91982335     0.36608200    -0.02727641    -0.00040544    -0.00024377    -0.00020013
C        -2.37853773     0.34107939     0.14086274     0.00044427    -0.00001274     0.00009167
H        -4.40733318     1.29171035    -0.35144066    -0.00165790     0.00086666     0.00015741
H        -1.87284754    -0.56216734     0.49552590     0.00135901    -0.00054684     0.00005513
C        -1.87780216     1.61891473    -0.00587161     0.00043775     0.00032057     0.00014982
H        -2.55224854     2.47545810    -0.29961668    -0.00078041    -0.00109208     0.00004937
N        -0.54412815     1.94848205     0.25649814    -0.00014245    -0.00005413    -0.00001284
H        -0.27183504     2.89707780    -0.06923818     0.00071051     0.00002673    -0.00048529
H         0.16521706     1.15284173     0.31694584     0.00114210     0.00035269    -0.00011783
    14
  Step:    19            Position(A)                                  Velocity(au)
C        -6.11587004    -0.65823762    -0.10838708    -0.00067144    -0.00025681    -0.00019278
C        -4.67258224    -0.72583331     0.10410075     0.00026750     0.00010453     0.00006030
H        -6.55544957     0.31033913    -0.38290061    -0.00021711     0.00012873     0.00072287
H        -6.72507149    -1.52037924     0.02902466    -0.00106882     0.00108987     0.00037663
H        -4.26000867    -1.70384392     0.47944378     0.00121852     0.00052696     0.00060233
C        -3.92406023     0.36344592    -0.02951842    -0.00036706    -0.00023157    -0.00021065
C        -2.37391739     0.34107946     0.14187202     0.00040035     0.00001157     0.00009317
H        -4.42490737     1.30125412    -0.34958579    -0.00152765     0.00083665     0.00019266
H        -1.85791351    -0.56772099     0.49584378     0.00135161    -0.00044335    -0.00000658
C        -1.87274671     1.62250404    -0.00418551     0.00048391     0.00033181     0.00015841
H        -2.55982563     2.46237708    -0.29863401    -0.00060258    -0.00127898     0.00012788
N        -0.54576322     1.94781759     0.25626220    -0.00015307    -0.00006542    -0.00003056
H        -0.26372281     2.89615518    -0.07394815     0.00076168    -0.00020784    -0.00036965
H         0.17627783     1.15880455     0.31558569     0.00086189     0.00073925    -0.00013040
    14
  Step:    20            Position(A)                                  Velocity(au)
C        -6.12304136    -0.66096401    -0.11048525    -0.00063572    -0.00023935    -0.00019026
C        -4.66994255    -0.72498771     0.10484651     0.00021166     0.00004723     0.00007608
H        -6.55784513     0.31124905    -0.37494385    -0.00022214     0.00004133     0.00072810
H        -6.73747127    -1.50917332     0.03319050    -0.00121263     0.00092950     0.00038928
H        -4.24694598    -1.69698252     0.48533758     0.00116138     0.00072405     0.00047236
C        -3.92785360     0.36101605    -0.03188481    -0.00032456    -0.00020693    -0.00022259
C        -2.36977925     0.34133245     0.14290102     0.00035638     0.00003384     0.00009516
H        -4.44075338     1.31001373    -0.34722576    -0.00134641     0.00073078     0.00024646
H        -1.84327846    -0.57186654     0.49538203     0.00130631    -0.00029421    -0.00008543
C        -1.86721581     1.62617380    -0.00240612     0.00052442     0.00033474     0.00016693
H        -2.56543112     2.44747789    -0.29681912    -0.00042476    -0.00141882     0.00019942
N        -0.54747679     1.94705088     0.25582969    -0.00015738    -0.00007250    -0.00004853