 Fermi distribution function

Calculation with static geometry


********************************************************************************
 iSCC Total electronic   Diff electronic      SCC error    
   12   -0.53246645E+01   -0.66577917E-08    0.36601242E-06
********************************************************************************

 Total charge:     1.00000000

 Atomic gross charges (e)
 Atom           Charge
    1       0.31591601
    2      -0.20310561
    3       0.17592622
    4       0.28999905
    5       0.26248186
    6       0.15878247

Nr. of electrons (up):     12.00000000
Atom populations (up)
 Atom       Population
    1       3.68408399
    2       5.20310561
    3       0.82407378
    4       0.71000095
    5       0.73751814
    6       0.84121753

l-shell populations (up)
 Atom Sh.   l       Population
    1   1   0       1.35078935
    1   2   1       2.33329464
    2   1   0       1.47740287
    2   2   1       3.72570274
    3   1   0       0.82407378
    4   1   0       0.71000095
    5   1   0       0.73751814
    6   1   0       0.84121753

Orbital populations (up)
 Atom Sh.   l   m       Population  Label
    1   1   0   0       1.35078935  s
    1   2   1  -1       0.46966254  p_y
    1   2   1   0       0.88899373  p_z
    1   2   1   1       0.97463837  p_x
    2   1   0   0       1.47740287  s
    2   2   1  -1       1.29290332  p_y
    2   2   1   0       1.13111216  p_z
    2   2   1   1       1.30168726  p_x
    3   1   0   0       0.82407378  s
    4   1   0   0       0.71000095  s
    5   1   0   0       0.73751814  s
    6   1   0   0       0.84121753  s

Fermi level:                        -0.5047918959 H          -13.7361 eV
Band energy:                        -8.7781862682 H         -238.8666 eV
TS:                                  0.0000000000 H            0.0000 eV
Band free energy (E-TS):            -8.7781862682 H         -238.8666 eV
Extrapolated E(0K):                 -8.7781862682 H         -238.8666 eV
Input / Output electrons (q):     12.0000000000     12.0000000000

Energy H0:                          -5.4613199487 H         -148.6101 eV
Energy SCC:                          0.1366554529 H            3.7186 eV
Total Electronic energy:            -5.3246644958 H         -144.8915 eV
Repulsive energy:                    0.1573080231 H            4.2806 eV
Total energy:                       -5.1673564727 H         -140.6109 eV
Extrapolated to 0:                  -5.1673564727 H         -140.6109 eV
Total Mermin free energy:           -5.1673564727 H         -140.6109 eV
Force related energy:               -5.1673564727 H         -140.6109 eV

SCC converged

Excitation Energy:                   0.0960509286 H            2.6137 eV

Total Forces
    1     -0.014047879312     -0.006018917812      0.068906547750
    2     -0.000766809812     -0.003896383677     -0.071926679595
    3      0.001378447869      0.015398627247      0.001484698268
    4     -0.008179332029     -0.011456938899      0.007372418276
    5      0.014761551883      0.015558342295     -0.003126855851
    6      0.006854021401     -0.009584729154     -0.002710128847

Maximal derivative component:        0.719267E-01 au


