|===============================================================================
|
|  DFTB+ release 20.1
|
|  Copyright (C) 2006 - 2020  DFTB+ developers group
|
|===============================================================================
|
|  When publishing results obtained with DFTB+, please cite the following
|  reference:
|
|  * DFTB+, a software package for efficient approximate density functional
|    theory based atomistic simulations, J. Chem. Phys. 152, 124101 (2020).
|    [doi: 10.1063/1.5143190]
|
|  You should also cite additional publications crediting the parametrization
|  data you use. Please consult the documentation of the SK-files for the
|  references.
|
|===============================================================================

Reading input file 'dftb_in.hsd'
Parser version: 8

--------------------------------------------------------------------------------
Reading SK-files:
Done.


Processed input in HSD format written to 'dftb_pin.hsd'

Starting initialization...
--------------------------------------------------------------------------------
WARNING!
-> Excited state forces are not implemented yet for fractional occupations, kT=  0.3158E-02K
OpenMP threads:              1
Chosen random seed:          435834761
Mode:                        Static calculation
Self consistent charges:     Yes
SCC-tolerance:                 0.100000E-05
Max. scc iterations:                    100
Shell resolved Hubbard:      No
Spin polarisation:           No
Nr. of up electrons:             6.000000
Nr. of down electrons:           6.000000
Periodic boundaries:         No
Electronic solver:           Relatively robust
Mixer:                       Broyden mixer
Mixing parameter:                  0.200000
Maximal SCC-cycles:                     100
Nr. of chrg. vec. in memory:              0
Electronic temperature:        0.100000E-07 H      0.272114E-06 eV
Initial charges:             Set automatically (system chrg:   0.100E+01)
Included shells:             C:  s, p
                             N:  s, p
                             H:  s
Extra options:
                             Mulliken analysis
                             Force calculation
Force type                   original
                             Eigenvector printing

--------------------------------------------------------------------------------

***  Geometry step: 0

 iSCC Total electronic   Diff electronic      SCC error    
    1   -0.54300090E+01    0.00000000E+00    0.59400172E+00
    2   -0.54330073E+01   -0.29982325E-02    0.41111094E+00
    3   -0.54353049E+01   -0.22976580E-02    0.51412261E-01
    4   -0.54354963E+01   -0.19135098E-03    0.11272707E-01
    5   -0.54354954E+01    0.87446001E-06    0.40579805E-02
    6   -0.54354972E+01   -0.17723606E-05    0.13070860E-03
    7   -0.54354972E+01   -0.26987035E-09    0.30326061E-04
    8   -0.54354972E+01   -0.31372238E-10    0.20716914E-05
    9   -0.54354972E+01   -0.14832580E-12    0.11703510E-05
   10   -0.54354972E+01   -0.66613381E-13    0.16114908E-07
>> Charges saved for restart in charges.bin

Total Energy:                       -5.0759365581 H         -138.1233 eV
Extrapolated to 0:                  -5.2374137697 H         -142.5173 eV
Total Mermin free energy:           -5.0759365581 H         -138.1233 eV
Force related energy:               -5.2374137697 H         -142.5173 eV

--------------------------------------------------------------------------------
DFTB+ running times                          cpu [s]             wall clock [s]
--------------------------------------------------------------------------------
SCC                                    +     0.01  ( 43.8%)      0.02  ( 57.5%)
Post-SCC processing                    +     0.01  ( 48.0%)      0.01  ( 35.0%)
--------------------------------------------------------------------------------
Missing                                +     0.00  (  8.2%)      0.00  (  7.5%)
Total                                  =     0.01  (100.0%)      0.04  (100.0%)
--------------------------------------------------------------------------------
