     6
  Step:   120            Position(A)                                  Velocity(au)
C        -0.04063709    -0.03318339    -0.01255494    -0.00009884    -0.00000061     0.00050965
N        -0.04137314    -0.08481246     1.33236978     0.00009421     0.00006087    -0.00046122
H         0.83309065    -0.12596035    -0.72636890    -0.00036057    -0.00126696     0.00052881
H         0.64625392     0.56470873     1.82110539    -0.00090712     0.00093242    -0.00024051
H        -0.88242513    -0.25971396     1.92225084     0.00021224    -0.00140807    -0.00042736
H        -0.75067991     0.72520048    -0.49042864     0.00092413     0.00090404     0.00047535
