|===============================================================================
|
|  DFTB+ release 20.1
|
|  Copyright (C) 2006 - 2020  DFTB+ developers group
|
|===============================================================================
|
|  When publishing results obtained with DFTB+, please cite the following
|  reference:
|
|  * DFTB+, a software package for efficient approximate density functional
|    theory based atomistic simulations, J. Chem. Phys. 152, 124101 (2020).
|    [doi: 10.1063/1.5143190]
|
|  You should also cite additional publications crediting the parametrization
|  data you use. Please consult the documentation of the SK-files for the
|  references.
|
|===============================================================================

Reading input file 'dftb_in.hsd'
Parser version: 8

--------------------------------------------------------------------------------
Reading SK-files:
Done.


Processed input in HSD format written to 'dftb_pin.hsd'

Starting initialization...
--------------------------------------------------------------------------------
WARNING!
-> Excited state forces are not implemented yet for fractional occupations, kT=  0.3158E-02K
OpenMP threads:              1
Chosen random seed:          507951123
Mode:                        Static calculation
Self consistent charges:     Yes
SCC-tolerance:                 0.100000E-05
Max. scc iterations:                    100
Shell resolved Hubbard:      No
Spin polarisation:           No
Nr. of up electrons:             6.000000
Nr. of down electrons:           6.000000
Periodic boundaries:         No
Electronic solver:           Relatively robust
Mixer:                       Broyden mixer
Mixing parameter:                  0.200000
Maximal SCC-cycles:                     100
Nr. of chrg. vec. in memory:              0
Electronic temperature:        0.100000E-07 H      0.272114E-06 eV
Initial charges:             Set automatically (system chrg:   0.100E+01)
Included shells:             C:  s, p
                             N:  s, p
                             H:  s
Extra options:
                             Mulliken analysis
                             Force calculation
Force type                   original
                             Eigenvector printing

--------------------------------------------------------------------------------

***  Geometry step: 0

 iSCC Total electronic   Diff electronic      SCC error    
    1   -0.52322997E+01    0.00000000E+00    0.11201363E+01
    2   -0.52582651E+01   -0.25965430E-01    0.69524441E+00
    3   -0.52662031E+01   -0.79379964E-02    0.32690639E+00
    4   -0.49120875E+01    0.35411555E+00    0.18816844E+01
    5   -0.52645117E+01   -0.35242413E+00    0.28020910E+00
    6   -0.52725725E+01   -0.80608578E-02    0.15665411E-01
    7   -0.52725953E+01   -0.22789552E-04    0.43694057E-02
    8   -0.52725928E+01    0.25017802E-05    0.64716711E-02
    9   -0.52725945E+01   -0.17165202E-05    0.46532636E-02
   10   -0.52725964E+01   -0.18207093E-05    0.93326440E-03
   11   -0.52725964E+01   -0.65776119E-07    0.37264965E-03
   12   -0.52725964E+01   -0.10657072E-07    0.11990018E-03
   13   -0.52725964E+01   -0.13446018E-08    0.10548424E-05
   14   -0.52725964E+01   -0.99475983E-13    0.18888913E-08
>> Charges saved for restart in charges.bin

Total Energy:                       -5.0438852301 H         -137.2511 eV
Extrapolated to 0:                  -5.1391338115 H         -139.8429 eV
Total Mermin free energy:           -5.0438852301 H         -137.2511 eV
Force related energy:               -5.1391338115 H         -139.8429 eV

--------------------------------------------------------------------------------
DFTB+ running times                          cpu [s]             wall clock [s]
--------------------------------------------------------------------------------
SCC                                    +     0.01  ( 72.4%)      0.11  ( 85.7%)
Post-SCC processing                    +     0.00  ( 22.3%)      0.01  ( 11.1%)
--------------------------------------------------------------------------------
Missing                                +     0.00  (  5.3%)      0.00  (  3.2%)
Total                                  =     0.02  (100.0%)      0.13  (100.0%)
--------------------------------------------------------------------------------
