     6
  Step:     0            Position(A)                                  Velocity(au)
C        -0.03234455     0.02685109     0.01365695     0.00010778     0.00002829    -0.00015958
N        -0.03679366    -0.06523728     1.30826764     0.00008849     0.00002995     0.00018816
H         0.88955841    -0.06337714    -0.54567604     0.00006987    -0.00018685    -0.00009469
H         0.80025966    -0.07071021     1.82583066    -0.00030606    -0.00025122    -0.00062838
H        -0.98807978    -0.01284907     1.79488044    -0.00122544    -0.00024453     0.00050379
H        -1.01795930     0.06375965    -0.52587859    -0.00105238    -0.00007065    -0.00049399
     6
  Step:     1            Position(A)                                  Velocity(au)
C        -0.03178155     0.02703948     0.01242701     0.00009740     0.00004079    -0.00028909
N        -0.03638649    -0.06508843     1.30957293     0.00005902     0.00002485     0.00028793
H         0.89010289    -0.06445229    -0.54627889     0.00012968    -0.00020811    -0.00012606
H         0.79921248    -0.07212490     1.82286065    -0.00006789    -0.00026814    -0.00045175
H        -0.99438845    -0.01424115     1.79758897    -0.00107064    -0.00026653     0.00048134
H        -1.02351495     0.06332860    -0.52849757    -0.00097192    -0.00008861    -0.00046010
     6
  Step:     2            Position(A)                                  Velocity(au)
C        -0.03127918     0.02729727     0.01049500     0.00008573     0.00005354    -0.00041575
N        -0.03614816    -0.06496546     1.31141700     0.00002720     0.00002044     0.00038484
H         0.89097685    -0.06565336    -0.54705489     0.00019018    -0.00023233    -0.00015798
H         0.79951710    -0.07364304     1.82088948     0.00018429    -0.00028855    -0.00026568
H        -0.99979020    -0.01576428     1.80014523    -0.00089611    -0.00029180     0.00044936
H        -1.02858997     0.06279043    -0.53091109    -0.00087782    -0.00010928    -0.00041960
     6
  Step:     3            Position(A)                                  Velocity(au)
C        -0.03084392     0.02762502     0.00787983     0.00007295     0.00006622    -0.00053817
N        -0.03608904    -0.06486485     1.31378206    -0.00000605     0.00001661     0.00047798
H         0.89218297    -0.06699336    -0.54800683     0.00025078    -0.00025820    -0.00019030
H         0.80122816    -0.07528092     1.81995481     0.00044189    -0.00031127    -0.00007538
H        -1.00418956    -0.01743269     1.80250383    -0.00070593    -0.00031888     0.00041008
H        -1.03311603     0.06213332    -0.53308687    -0.00077192    -0.00013154    -0.00037375
     6
  Step:     4            Position(A)                                  Velocity(au)
C        -0.03048115     0.02802169     0.00460760     0.00005927     0.00007854    -0.00065480
N        -0.03621435    -0.06478372     1.31664589    -0.00003972     0.00001326     0.00056634
H         0.89372025    -0.06847795    -0.54913668     0.00031060    -0.00028439    -0.00022274
H         0.80435118    -0.07704823     1.82006481     0.00069527    -0.00033508     0.00011342
H        -1.00751277    -0.01925268     1.80463136    -0.00050423    -0.00034632     0.00036564
H        -1.03703447     0.06135139    -0.53499972    -0.00065603    -0.00015436    -0.00032388
     6
  Step:     5            Position(A)                                  Velocity(au)
C        -0.03019512     0.02848469     0.00071255     0.00004494     0.00009020    -0.00076382
N        -0.03652377    -0.06471966     1.31998112    -0.00007271     0.00001033     0.00064873
H         0.89558268    -0.07010618    -0.55044494     0.00036850    -0.00030972    -0.00025488
H         0.80883842    -0.07894861     1.82119624     0.00093417    -0.00035886     0.00029467
H        -1.00970875    -0.02122340     1.80650598    -0.00029560    -0.00037284     0.00031816
H        -1.04029673     0.06044377    -0.53663192    -0.00053219    -0.00017686    -0.00027138
     6
  Step:     6            Position(A)                                  Velocity(au)
C        -0.02998873     0.02900996    -0.00376143     0.00003023     0.00010091    -0.00086315
N        -0.03701104    -0.06467054     1.32375396    -0.00010388     0.00000777     0.00072370
H         0.89775789    -0.07187147    -0.55192941     0.00042309    -0.00033317    -0.00028601
H         0.81458679    -0.08098020     1.82329349     0.00114820    -0.00038157     0.00046228
H        -1.01075160    -0.02333779     1.80811737    -0.00008523    -0.00039729     0.00026982
H        -1.04286556     0.05941359    -0.53797324    -0.00040280    -0.00019833    -0.00021774
     6
  Step:     7            Position(A)                                  Velocity(au)
C        -0.02986335     0.02959204    -0.00875952     0.00001548     0.00011040    -0.00095056
N        -0.03766370    -0.06463439     1.32792296    -0.00013204     0.00000557     0.00078965
H         0.90022557    -0.07376232    -0.55358360     0.00047272    -0.00035383    -0.00031521
H         0.82143867    -0.08313593     1.82626925     0.00132754    -0.00040222     0.00061046
H        -1.01064407    -0.02558324     1.80946696     0.00012096    -0.00041867     0.00022287
H        -1.04471700     0.05826735    -0.53902135    -0.00027074    -0.00021815    -0.00016450
     6
  Step:     8            Position(A)                                  Velocity(au)
C        -0.02981849     0.03022406    -0.01421517     0.00000107     0.00011841    -0.00102388
N        -0.03846318    -0.06460930     1.33243806    -0.00015610     0.00000372     0.00084494
H         0.90295656    -0.07576270    -0.55539587     0.00051572    -0.00037091    -0.00034152
H         0.82918631    -0.08540359     1.83000700     0.00146376    -0.00041987     0.00073421
H        -1.00942140    -0.02794204     1.81056839     0.00031643    -0.00043605     0.00017963
H        -1.04584298     0.05701456    -0.53978236    -0.00013936    -0.00023576    -0.00011335
     6
  Step:     9            Position(A)                                  Velocity(au)
C        -0.02985159     0.03089784    -0.02005044    -0.00001260     0.00012473    -0.00108122
N        -0.03938513    -0.06459342     1.33724057    -0.00017509     0.00000220     0.00088813
H         0.90591268    -0.07785251    -0.55734970     0.00055050    -0.00038372    -0.00036406
H         0.83758041    -0.08776603     1.83436585     0.00155071    -0.00043367     0.00082978
H        -1.00715458    -0.03039187     1.81144780     0.00049438    -0.00044872     0.00014239
H        -1.04625383     0.05566752    -0.54027136    -0.00001241    -0.00025069    -0.00006600
     6
  Step:    10            Position(A)                                  Velocity(au)
C        -0.02995785     0.03160404    -0.02617767    -0.00002509     0.00012920    -0.00112134
N        -0.04040033    -0.06458496     1.34226416    -0.00018829     0.00000101     0.00091820
H         0.90904726    -0.08000811    -0.55942373     0.00057580    -0.00039181    -0.00038208
H         0.84634317    -0.09020168     1.83918760     0.00158534    -0.00044303     0.00089511
H        -1.00395166    -0.03290660     1.81214374     0.00064818    -0.00045618     0.00011335
H        -1.04598026     0.05424095    -0.54051260     0.00010624    -0.00026261    -0.00002412
     6
  Step:    11            Position(A)                                  Velocity(au)
C        -0.03013020     0.03233262    -0.03250272    -0.00003604     0.00013180    -0.00114398
N        -0.04147609    -0.06458218     1.34743700    -0.00019535     0.00000013     0.00093488
H         0.91230679    -0.08220346    -0.56159265     0.00059085    -0.00039502    -0.00039516
H         0.85518533    -0.09268575     1.84430588     0.00156820    -0.00044767     0.00093015
H        -0.99995664    -0.03545765     1.81270653     0.00077215    -0.00045833     0.00009445
H        -1.04507406     0.05275128    -0.54053919     0.00021290    -0.00027139     0.00001081
     6
  Step:    12            Position(A)                                  Velocity(au)
C        -0.03035957     0.03307336    -0.03893052    -0.00007430     0.00021829    -0.00189296
N        -0.04257808    -0.06458345     1.35268598    -0.00032309    -0.00000075     0.00154521
H         0.91563399    -0.08441170    -0.56382885     0.00098037    -0.00064777    -0.00066368
H         0.86382513    -0.09519218     1.84955667     0.00247440    -0.00073699     0.00154198
H        -0.99534394    -0.03801601     1.81319665     0.00141917    -0.00074974     0.00014348
H        -1.04360690     0.05121560    -0.54039204     0.00050121    -0.00045616     0.00006197
     6
  Step:    13            Position(A)                                  Velocity(au)
C        -0.03078687     0.03427368    -0.04917005    -0.00007514     0.00020479    -0.00171647
N        -0.04436594    -0.06458522     1.36107451    -0.00030393     0.00000023     0.00141162
H         0.92128672    -0.08804796    -0.56787324     0.00100611    -0.00063390    -0.00075532
H         0.87734539    -0.09919729     1.85813198     0.00226963    -0.00067519     0.00146714
H        -0.98729734    -0.04213987     1.81401770     0.00139457    -0.00070427     0.00015692
H        -1.04088998     0.04870268    -0.54030016     0.00044856    -0.00043011    -0.00003171
     6
  Step:    14            Position(A)                                  Velocity(au)
C        -0.03121265     0.03539855    -0.05841922    -0.00003994     0.00010375    -0.00083587
N        -0.04602889    -0.06458082     1.36871344    -0.00015123     0.00000074     0.00069342
H         0.92705729    -0.09160897    -0.57240471     0.00055242    -0.00033602    -0.00045177
H         0.88959433    -0.10285829     1.86621446     0.00109905    -0.00033308     0.00074198
H        -0.97951012    -0.04601228     1.81497828     0.00071908    -0.00035779     0.00010369
H        -1.03851393     0.04633219    -0.54075207     0.00020695    -0.00021965    -0.00006965
     6
  Step:    15            Position(A)                                  Velocity(au)
C        -0.03144705     0.03597856    -0.06308953    -0.00004220     0.00010114    -0.00081368
N        -0.04683701    -0.06457643     1.37258697    -0.00013334     0.00000086     0.00067473
H         0.93009230    -0.09347366    -0.57492106     0.00051792    -0.00032271    -0.00043666
H         0.89527474    -0.10472479     1.87022933     0.00090458    -0.00032645     0.00067393
H        -0.97551306    -0.04800540     1.81567727     0.00068291    -0.00034667     0.00014752
H        -1.03720337     0.04508425    -0.54112627     0.00025043    -0.00022134    -0.00006533
     6
  Step:    16            Position(A)                                  Velocity(au)
C        -0.03169026     0.03654318    -0.06762781    -0.00004356     0.00009940    -0.00079807
N        -0.04753794    -0.06457105     1.37634954    -0.00011488     0.00000110     0.00066151
H         0.93291870    -0.09526110    -0.57734646     0.00048437    -0.00031214    -0.00042443
H         0.89983166    -0.10655277     1.87384148     0.00071224    -0.00032307     0.00060762
H        -0.97178149    -0.04993566     1.81664775     0.00063348    -0.00033929     0.00020116
H        -1.03567982     0.04382724    -0.54149142     0.00028538    -0.00022534    -0.00006708
     6
  Step:    17            Position(A)                                  Velocity(au)
C        -0.03193728     0.03709724    -0.07207085    -0.00004402     0.00009836    -0.00078762
N        -0.04812982    -0.06456400     1.38003142    -0.00009578     0.00000147     0.00065249
H         0.93554330    -0.09698639    -0.57969752     0.00045096    -0.00030359    -0.00041444
H         0.90329013    -0.10836054     1.87706734     0.00052148    -0.00032249     0.00054308
H        -0.96838401    -0.05182371     1.81794106     0.00057116    -0.00033495     0.00026408
H        -1.03399171     0.04254837    -0.54188116     0.00031198    -0.00023138    -0.00007470
     6
  Step:    18            Position(A)                                  Velocity(au)
C        -0.03218320     0.03764460    -0.07644750    -0.00004352     0.00009775    -0.00078030
N        -0.04861050    -0.06455462     1.38365606    -0.00007598     0.00000196     0.00064597
H         0.93796851    -0.09866070    -0.58198731     0.00041662    -0.00029616    -0.00040574
H         0.90567120    -0.11016398     1.87992290     0.00033193    -0.00032404     0.00047996
H        -0.96538564    -0.05368642     1.81960491     0.00049621    -0.00033275     0.00033520
H        -1.03218631     0.04123622    -0.54232787     0.00032978    -0.00023904    -0.00008799
     6
  Step:    19            Position(A)                                  Velocity(au)
C        -0.03242282     0.03818772    -0.08077547    -0.00004201     0.00009736    -0.00077428
N        -0.04897746    -0.06454218     1.38723752    -0.00005557     0.00000257     0.00064042
H         0.94019095    -0.10029016    -0.58422377     0.00038059    -0.00028903    -0.00039754
H         0.90699298    -0.11197532     1.88242160     0.00014435    -0.00032712     0.00041825
H        -0.96284855    -0.05553566     1.82168040     0.00040963    -0.00033186     0.00041293
H        -1.03031284     0.03988179    -0.54286277     0.00033821    -0.00024787    -0.00010676
     6
  Step:    20            Position(A)                                  Velocity(au)
C        -0.03265064     0.03872784    -0.08506240    -0.00003946     0.00009701    -0.00076821
N        -0.04922875    -0.06452597     1.39078153    -0.00003478     0.00000333     0.00063472
H         0.94220306    -0.10187656    -0.58641051     0.00034252    -0.00028164    -0.00038934
H         0.90727731    -0.11380366     1.88457646    -0.00003932    -0.00033137     0.00035844
H        -0.96082792    -0.05737875     1.82419928     0.00031350    -0.00033165     0.00049529
H        -1.02842331     0.03847838    -0.54351569     0.00033682    -0.00025755    -0.00013073
     6
  Step:    21            Position(A)                                  Velocity(au)
C        -0.03286107     0.03926526    -0.08930841    -0.00003587     0.00009659    -0.00076116
N        -0.04936382    -0.06450520     1.39428772    -0.00001403     0.00000423     0.00062815
H         0.94399553    -0.10341852    -0.58854837     0.00030247    -0.00027360    -0.00038087
H         0.90655620    -0.11565603     1.88640301    -0.00021638    -0.00033658     0.00030146
H        -0.95936633    -0.05921950     1.82718187     0.00021079    -0.00033167     0.00058005
H        -1.02657162     0.03702101    -0.54431482     0.00032545    -0.00026788    -0.00015955
     6
  Step:    22            Position(A)                                  Velocity(au)
C        -0.03304866     0.03979970    -0.09350866    -0.00003131     0.00009605    -0.00075259
N        -0.04938438    -0.06447908     1.39775176     0.00000623     0.00000527     0.00062026
H         0.94555948    -0.10491255    -0.59063689     0.00026079    -0.00026466    -0.00037211
H         0.90487630    -0.11753847     1.88792163    -0.00038363    -0.00034271     0.00024849
H        -0.95848892    -0.06105914     1.83063577     0.00010514    -0.00033157     0.00066482
H        -1.02481199     0.03550585    -0.54528618     0.00030427    -0.00027873    -0.00019279
     6
  Step:    23            Position(A)                                  Velocity(au)
C        -0.03320832     0.04033049    -0.09765521    -0.00002587     0.00009533    -0.00074216
N        -0.04929478    -0.06444678     1.40116696     0.00002544     0.00000646     0.00061085
H         0.94688796    -0.10635381    -0.59267539     0.00021802    -0.00025469    -0.00036314
H         0.90230140    -0.11945693     1.88915898    -0.00053773    -0.00034984     0.00020085
H        -0.95820022    -0.06289693     1.83455523     0.00000056    -0.00033108     0.00074719
H        -1.02319696     0.03392966    -0.54645300     0.00027384    -0.00029005    -0.00022987
     6
  Step:    24            Position(A)                                  Velocity(au)
C        -0.03333554     0.04085676    -0.10173841    -0.00001968     0.00009442    -0.00072975
N        -0.04910223    -0.06440745     1.40452539     0.00004310     0.00000781     0.00059982
H         0.94797708    -0.10773673    -0.59466371     0.00017482    -0.00024361    -0.00035415
H         0.89891349    -0.12141784     1.89014884    -0.00067531    -0.00035815     0.00015990
H        -0.95848276    -0.06473048     1.83892123    -0.00009893    -0.00032996     0.00082484
H        -1.02177543     0.03228948    -0.54783514     0.00023501    -0.00030185    -0.00027011
     6
  Step:    25            Position(A)                                  Velocity(au)
C        -0.03342657     0.04137756    -0.10574783    -0.00001289     0.00009333    -0.00071535
N        -0.04881682    -0.06436021     1.40781863     0.00005868     0.00000931     0.00058718
H         0.94882660    -0.10905532    -0.59660274     0.00013192    -0.00023140    -0.00034539
H         0.89481257    -0.12342868     1.89093224    -0.00079319    -0.00036788     0.00012697
H        -0.95929735    -0.06655601     1.84370229    -0.00018952    -0.00032798     0.00089566
H        -1.02059085     0.03058226    -0.54944843     0.00018895    -0.00031417    -0.00031276
     6
  Step:    26            Position(A)                                  Velocity(au)
C        -0.03347856     0.04189193    -0.10967298    -0.00000569     0.00009206    -0.00069902
N        -0.04845132    -0.06430418     1.41103829     0.00007174     0.00001097     0.00057300
H         0.94944035    -0.11030340    -0.59849473     0.00009011    -0.00021806    -0.00033714
H         0.89011555    -0.12549836     1.89155718    -0.00088851    -0.00037933     0.00010325
H        -0.96058486    -0.06836839     1.84885577    -0.00026785    -0.00032493     0.00095783
H        -1.01967966     0.02880470    -0.55130428     0.00013707    -0.00032709    -0.00035698
     6
  Step:    27            Position(A)                                  Velocity(au)
C        -0.03348968     0.04239897    -0.11350378     0.00000175     0.00009063    -0.00068093
N        -0.04802081    -0.06423847     1.41417630     0.00008191     0.00001280     0.00055740
H         0.94982637    -0.11147477    -0.60034347     0.00005013    -0.00020359    -0.00032972
H         0.88495414    -0.12763751     1.89207787    -0.00095895    -0.00039285     0.00008975
H        -0.96226920    -0.07016119     1.85432977    -0.00033122    -0.00032057     0.00100993
H        -1.01906998     0.02695303    -0.55340931     0.00008098    -0.00034073    -0.00040191
     6
  Step:    28            Position(A)                                  Velocity(au)
C        -0.03345916     0.04289788    -0.11723094     0.00000922     0.00008907    -0.00066126
N        -0.04754219    -0.06416216     1.41722519     0.00008891     0.00001478     0.00054053
H         0.94999678    -0.11256319    -0.60215443     0.00001273    -0.00018801    -0.00032344
H         0.87947168    -0.12985876     1.89255340    -0.00100281    -0.00040882     0.00008720
H        -0.96426121    -0.07192661     1.86006548    -0.00037769    -0.00031470     0.00105099
H        -1.01878078     0.02502275    -0.55576523     0.00002238    -0.00035524    -0.00044666
     6
  Step:    29            Position(A)                                  Velocity(au)
C        -0.03338728     0.04338800    -0.12084620     0.00001654     0.00008741    -0.00064023
N        -0.04703361    -0.06407434     1.42017824     0.00009258     0.00001693     0.00052255
H         0.94996770    -0.11356240    -0.60393485    -0.00002142    -0.00017130    -0.00031864
H         0.87381923    -0.13217694     1.89304615    -0.00101917    -0.00042768     0.00009601
H        -0.96646302    -0.07365554     1.86599962    -0.00040613    -0.00030706     0.00108048
H        -1.01882145     0.02300849    -0.55836890    -0.00003701    -0.00037084    -0.00049042
     6
  Step:    30            Position(A)                                  Velocity(au)
C        -0.03327538     0.04386880    -0.12434247     0.00002354     0.00008567    -0.00061807
N        -0.04651380    -0.06397406     1.42302957     0.00009289     0.00001925     0.00050362
H         0.94975882    -0.11446594    -0.60569375    -0.00005172    -0.00015341    -0.00031565
H         0.86815110    -0.13460925     1.89361982    -0.00100791    -0.00044987     0.00011621
H        -0.96877242    -0.07533739     1.87206709    -0.00041618    -0.00029740     0.00109833
H        -1.01919184     0.02090362    -0.56121268    -0.00009552    -0.00038777    -0.00053244
     6
  Step:    31            Position(A)                                  Velocity(au)
C        -0.03312575     0.04433993    -0.12771369     0.00003005     0.00008390    -0.00059495
N        -0.04600148    -0.06386040     1.42577404     0.00008990     0.00002175     0.00048386
H         0.94939308    -0.11526695    -0.60744209    -0.00007762    -0.00013423    -0.00031484
H         0.86262021    -0.13717547     1.89433741    -0.00096979    -0.00047589     0.00014749
H        -0.97108722    -0.07695998     1.87820332    -0.00040820    -0.00028540     0.00110490
H        -1.01988284     0.01869995    -0.56428491    -0.00015166    -0.00040638    -0.00057209
     6
  Step:    32            Position(A)                                  Velocity(au)
C        -0.03294147     0.04480119    -0.13095451     0.00003594     0.00008210    -0.00057096
N        -0.04551471    -0.06373237     1.42840705     0.00008377     0.00002442     0.00046336
H         0.94889623    -0.11595775    -0.60919283    -0.00009865    -0.00011358    -0.00031661
H         0.85737321    -0.13989817     1.89525894    -0.00090640    -0.00050629     0.00018908
H        -0.97330908    -0.07850919     1.88434664    -0.00038321    -0.00027066     0.00110091
H        -1.02087739     0.01638723    -0.56757067    -0.00020415    -0.00042712    -0.00060888
     6
  Step:    33            Position(A)                                  Velocity(au)
C        -0.03272627     0.04525253    -0.13406001     0.00004113     0.00008032    -0.00054613
N        -0.04507032    -0.06358899     1.43092440     0.00007479     0.00002727     0.00044216
H         0.94829655    -0.11652936    -0.61096129    -0.00011439    -0.00009112    -0.00032143
H         0.85254537    -0.14280300     1.89643905    -0.00082023    -0.00054167     0.00023980
H        -0.97534674    -0.07996847     1.89044021    -0.00034271    -0.00025268     0.00108738
H        -1.02215202     0.01395240    -0.57105276    -0.00025204    -0.00045060    -0.00064254
     6
  Step:    34            Position(A)                                  Velocity(au)
C        -0.03248431     0.04569404    -0.13702512     0.00004555     0.00007858    -0.00052037
N        -0.04468339    -0.06342925     1.43332200     0.00006328     0.00003030     0.00042027
H         0.94762473    -0.11697064    -0.61276574    -0.00012436    -0.00006638    -0.00032997
H         0.84825581    -0.14591915     1.89792450    -0.00071451    -0.00058275     0.00029807
H        -0.97711852    -0.08131788     1.89643355    -0.00028854    -0.00023068     0.00106556
H        -1.02367893     0.01137854    -0.57471292    -0.00029481    -0.00047767    -0.00067305
     6
  Step:    35            Position(A)                                  Velocity(au)
C        -0.03221995     0.04612598    -0.13984396     0.00004922     0.00007692    -0.00049333
N        -0.04436694    -0.06325219     1.43559564     0.00004964     0.00003351     0.00039749
H         0.94691434    -0.11726716    -0.61462886    -0.00012788    -0.00003860    -0.00034329
H         0.84460365    -0.14928026     1.89975204    -0.00059307    -0.00063049     0.00036191
H        -0.97855388    -0.08253245     1.90228388    -0.00022279    -0.00020349     0.00103694
H        -1.02542878     0.00864315    -0.57853368    -0.00033260    -0.00050960    -0.00070083
     6
  Step:    36            Position(A)                                  Velocity(au)
C        -0.03193735     0.04654883    -0.14250756     0.00005218     0.00007536    -0.00046392
N        -0.04413168    -0.06305686     1.43773945     0.00003429     0.00003688     0.00037322
H         0.94620351    -0.11739957    -0.61658075    -0.00012370    -0.00000672    -0.00036341
H         0.84166486    -0.15292592     1.90194654    -0.00046021    -0.00068616     0.00042911
H        -0.97959445    -0.08357933     1.90795735    -0.00014768    -0.00016924     0.00100327
H        -1.02737522     0.00571519    -0.58250142    -0.00036673    -0.00054841    -0.00072720
     6
  Step:    37            Position(A)                                  Velocity(au)
C        -0.03164014     0.04696326    -0.14499839     0.00005461     0.00007396    -0.00042936
N        -0.04398597    -0.06284238     1.43974226     0.00001763     0.00004042     0.00034561
H         0.94553993    -0.11734183    -0.61866653    -0.00010879     0.00003024    -0.00039480
H         0.83949048    -0.15690387     1.90451963    -0.00032031    -0.00075114     0.00049736
H        -0.98019474    -0.08441279     1.91343076    -0.00006563    -0.00012504     0.00096669
H        -1.02950339     0.00255006    -0.58661323    -0.00040103    -0.00059708    -0.00075569
     6
  Step:    38            Position(A)                                  Velocity(au)
C        -0.03133077     0.04737036    -0.14727654     0.00006178     0.00007943    -0.00041724
N        -0.04393586    -0.06260793     1.44157819     0.00000019     0.00004803     0.00033800
H         0.94499514    -0.11706369    -0.62096582    -0.00008262     0.00007591    -0.00048774
H         0.83810717    -0.16126887     1.90747070    -0.00019347    -0.00089756     0.00061634
H        -0.98032345    -0.08496813     1.91869442     0.00002204    -0.00007535     0.00101366
H        -1.03182945    -0.00091667    -0.59089497    -0.00048474    -0.00071694    -0.00086743
     6
  Step:    39            Position(A)                                  Velocity(au)
C        -0.03100195     0.04780864    -0.14942943     0.00005636     0.00007828    -0.00037345
N        -0.04396692    -0.06233504     1.44333153    -0.00001160     0.00005041     0.00030416
H         0.94467347    -0.11690097    -0.62380896    -0.00004940    -0.00000263    -0.00051701
H         0.83741805    -0.16604113     1.91114135    -0.00006000    -0.00083597     0.00069918
H        -0.98001285    -0.08558842     1.92415832     0.00009380    -0.00014218     0.00095206
H        -1.03461590    -0.00470173    -0.59589766    -0.00049484    -0.00065250    -0.00091086
     6
  Step:    40            Position(A)                                  Velocity(au)
C        -0.03070514     0.04823935    -0.15142218     0.00005079     0.00007684    -0.00035129
N        -0.04406458    -0.06204837     1.44495459    -0.00002387     0.00005306     0.00028550
H         0.94444674    -0.11709283    -0.62670506    -0.00003903    -0.00004928    -0.00052002
H         0.83744113    -0.17054889     1.91523227     0.00006248    -0.00080694     0.00076761
H        -0.97928217    -0.08654644     1.92926317     0.00017214    -0.00018917     0.00088794
H        -1.03732261    -0.00815998    -0.60100639    -0.00046900    -0.00060759    -0.00091702
     6
  Step:    41            Position(A)                                  Velocity(au)
C        -0.03043837     0.04866135    -0.15332777     0.00004540     0.00007528    -0.00033722
N        -0.04423185    -0.06174619     1.44649982    -0.00003622     0.00005594     0.00027287
H         0.94424030    -0.11744789    -0.62957969    -0.00003646    -0.00006988    -0.00051588
H         0.83811142    -0.17499590     1.91965963     0.00017209    -0.00080582     0.00082213
H        -0.97810256    -0.08768767     1.93401188     0.00025317    -0.00021378     0.00082486
H        -1.03982050    -0.01144431    -0.60607401    -0.00042644    -0.00058489    -0.00090463
     6
  Step:    42            Position(A)                                  Velocity(au)
C        -0.03020153     0.04907444    -0.15516306     0.00003991     0.00007371    -0.00032513
N        -0.04446638    -0.06142784     1.44798156    -0.00004780     0.00005887     0.00026210
H         0.94404229    -0.11786804    -0.63242776    -0.00003493    -0.00007716    -0.00051167
H         0.83935014    -0.17948797     1.92435231     0.00026621    -0.00081878     0.00086404
H        -0.97647374    -0.08891791     1.93841342     0.00033262    -0.00022527     0.00076350
H        -1.04205316    -0.01464820    -0.61104158    -0.00037516    -0.00057521    -0.00088383
     6
  Step:    43            Position(A)                                  Velocity(au)
C        -0.02999583     0.04947869    -0.15693317     0.00003417     0.00007215    -0.00031373
N        -0.04476194    -0.06109333     1.44940625    -0.00005805     0.00006177     0.00025234
H         0.94385298    -0.11830355    -0.63525364    -0.00003323    -0.00007737    -0.00050819
H         0.84106343    -0.18407536     1.92924100     0.00034245    -0.00083845     0.00089329
H        -0.97441413    -0.09018573     1.94247836     0.00040759    -0.00022937     0.00070429
H        -1.04398071    -0.01782284    -0.61587479    -0.00031731    -0.00057292    -0.00085760
     6
  Step:    44            Position(A)                                  Velocity(au)
C        -0.02982278     0.04987417    -0.15864078     0.00002816     0.00007060    -0.00030275
N        -0.04510983    -0.06074308     1.45077876    -0.00006658     0.00006458     0.00024341
H         0.94367397    -0.11872567    -0.63806110    -0.00003130    -0.00007330    -0.00050523
H         0.84314616    -0.18878215     1.93425446     0.00039913    -0.00086121     0.00090954
H        -0.97195557    -0.09146048     1.94622046     0.00047589    -0.00022892     0.00064786
H        -1.04557052    -0.02099907    -0.62054806    -0.00025407    -0.00057526    -0.00082718
     6