     6
  Step:     0            Position(A)                                  Velocity(au)
C        -0.03336139    -0.01146609     0.04111446     0.00012016     0.00000501     0.00023407
N        -0.04721348    -0.03010105     1.28355120    -0.00003788     0.00004728    -0.00017040
H         0.86919334     0.11370987    -0.52303258    -0.00004430    -0.00017194    -0.00015388
H         0.85391432    -0.19636523     1.87996798     0.00037364    -0.00024222    -0.00005930
H        -0.87155988    -0.12148377     1.75539912    -0.00031636    -0.00028154     0.00007996
H        -1.01085403     0.08928592    -0.54689451    -0.00091844    -0.00002106    -0.00028795
     6
  Step:     1            Position(A)                                  Velocity(au)
C        -0.03272632    -0.01144951     0.04213744     0.00011184     0.00000110     0.00013865
N        -0.04732244    -0.02983228     1.28283508    -0.00000262     0.00005098    -0.00009009
H         0.86927510     0.11288324    -0.52423260     0.00007219    -0.00013063    -0.00028425
H         0.85545316    -0.19767352     1.87933569     0.00018699    -0.00023600    -0.00017304
H        -0.87432193    -0.12317751     1.75658700    -0.00068326    -0.00033740     0.00034841
H        -1.01576614     0.08918181    -0.54848810    -0.00087220    -0.00001757    -0.00029119
     6
  Step:     2            Position(A)                                  Velocity(au)
C        -0.03213837    -0.01145402     0.04263063     0.00010310    -0.00000271     0.00004091
N        -0.04724215    -0.02954357     1.28256598     0.00003083     0.00005460    -0.00000723
H         0.86998278     0.11228136    -0.52614101     0.00018383    -0.00008999    -0.00041257
H         0.85595917    -0.19894604     1.87807569    -0.00000236    -0.00022970    -0.00028780
H        -0.87903162    -0.12517341     1.75920916    -0.00102325    -0.00039167     0.00060105
H        -1.02039198     0.08909374    -0.55007877    -0.00081509    -0.00001515    -0.00028763
     6
  Step:     3            Position(A)                                  Velocity(au)
C        -0.03159949    -0.01147911     0.04258458     0.00009401    -0.00000643    -0.00005812
N        -0.04698552    -0.02923551     1.28275606     0.00006150     0.00005809     0.00007760
H         0.87128432     0.11189970    -0.52874196     0.00028883    -0.00005023    -0.00053732
H         0.85542741    -0.20018408     1.87619012    -0.00019114    -0.00022389    -0.00040088
H        -0.88550592    -0.12745838     1.76315646    -0.00132468    -0.00044282     0.00083058
H        -1.02467504     0.08901619    -0.55163186    -0.00074786    -0.00001368    -0.00027810
     6
  Step:     4            Position(A)                                  Velocity(au)
C        -0.03111120    -0.01152427     0.04199558     0.00008465    -0.00001006    -0.00015729
N        -0.04657026    -0.02890893     1.28341386     0.00008856     0.00006139     0.00016357
H         0.87313847     0.11173253    -0.53201162     0.00038546    -0.00001160    -0.00065686
H         0.85387085    -0.20139218     1.87369578    -0.00037579    -0.00021914    -0.00050939
H        -0.89350488    -0.13001160     1.76828392    -0.00157800    -0.00048944     0.00103090
H        -1.02856297     0.08894425    -0.55311721    -0.00067117    -0.00001305    -0.00026336
     6
  Step:     5            Position(A)                                  Velocity(au)
C        -0.03067471    -0.01158902     0.04086634     0.00007507    -0.00001360    -0.00025522
N        -0.04601802    -0.02856489     1.28454295     0.00011135     0.00006446     0.00024954
H         0.87549523     0.11177300    -0.53591764     0.00047205     0.00002567    -0.00076944
H         0.85132216    -0.20257808     1.87062536    -0.00055229    -0.00021606    -0.00061016
H        -0.90274437    -0.13280515     1.77441832    -0.00177595    -0.00053022     0.00119732
H        -1.03200707     0.08887360    -0.55450888    -0.00058569    -0.00001316    -0.00024415
     6
  Step:     6            Position(A)                                  Velocity(au)
C        -0.03029099    -0.01167283     0.03920698     0.00006530    -0.00001702    -0.00035038
N        -0.04535366    -0.02820463     1.28614041     0.00012931     0.00006727     0.00033409
H         0.87829614     0.11201297    -0.54041859     0.00054698     0.00006127    -0.00087319
H         0.84783647    -0.20375287     1.86702912    -0.00071601    -0.00021526    -0.00069966
H        -0.91290915    -0.13580491     1.78136600    -0.00191383    -0.00056407     0.00132661
H        -1.03496225     0.08880045    -0.55578486    -0.00049220    -0.00001391    -0.00022121
     6
  Step:     7            Position(A)                                  Velocity(au)
C        -0.02996081    -0.01177510     0.03703599     0.00005542    -0.00002031    -0.00044104
N        -0.04460444    -0.02782953     1.28819525     0.00014205     0.00006979     0.00041551
H         0.88147484     0.11244286    -0.54546343     0.00060879     0.00009491    -0.00096622
H         0.84349469    -0.20493133     1.86297668    -0.00086178    -0.00021745    -0.00077413
H        -0.92366649    -0.13897156     1.78892089    -0.00198953    -0.00059009     0.00141709
H        -1.03738784     0.08872154    -0.55692719    -0.00039175    -0.00001520    -0.00019533
     6
  Step:     8            Position(A)                                  Velocity(au)
C        -0.02968462    -0.01189510     0.03438101     0.00004549    -0.00002344    -0.00052540
N        -0.04379936    -0.02744096     1.29068706     0.00014931     0.00007204     0.00049192
H         0.88495776     0.11305151    -0.55099130     0.00065625     0.00012624    -0.00104667
H         0.83840659    -0.20613226     1.85855840    -0.00098404    -0.00022337    -0.00082971
H        -0.93467926    -0.14226186     1.79687219    -0.00200344    -0.00060769     0.00146854
H        -1.03924893     0.08863414    -0.55792218    -0.00028570    -0.00001693    -0.00016735
     6
  Step:     9            Position(A)                                  Velocity(au)
C        -0.02946243    -0.01203194     0.03127923     0.00003562    -0.00002637    -0.00060167
N        -0.04296844    -0.02704024     1.29358522     0.00015100     0.00007402     0.00056139
H         0.88866537     0.11382603    -0.55693175     0.00068844     0.00015491    -0.00111286
H         0.83271264    -0.20737874     1.85388561    -0.00107719    -0.00023378    -0.00086274
H        -0.94561814    -0.14562997     1.80501162    -0.00195827    -0.00061655     0.00148215
H        -1.04051819     0.08853604    -0.55876083    -0.00017574    -0.00001900    -0.00013822
     6
  Step:    10            Position(A)                                  Velocity(au)
C        -0.02929370    -0.01218455     0.02777718     0.00002593    -0.00002907    -0.00066822
N        -0.04214203    -0.02662852     1.29684879     0.00014715     0.00007579     0.00062209
H         0.89251393     0.11475182    -0.56320586     0.00070488     0.00018064    -0.00116347
H         0.82658356    -0.20869821     1.84908914    -0.00113606    -0.00024945    -0.00087006
H        -0.95617288    -0.14902896     1.81314002    -0.00185879    -0.00061667     0.00146035
H        -1.04117779     0.08842564    -0.55943926    -0.00006393    -0.00002129    -0.00010895
     6
  Step:    11            Position(A)                                  Velocity(au)
C        -0.02917720    -0.01235168     0.02392985     0.00001658    -0.00003151    -0.00072370
N        -0.04135003    -0.02620673     1.30042721     0.00013797     0.00007738     0.00067246
H         0.89641790     0.11581278    -0.56972802     0.00070562     0.00020317    -0.00119764
H         0.82021778    -0.21012225     1.84431630    -0.00115644    -0.00027101    -0.00084941
H        -0.96606186    -0.15241233     1.82107313    -0.00171150    -0.00060837     0.00140664
H        -1.04122127     0.08830188    -0.55995907     0.00004742    -0.00002370    -0.00008058
     6
  Step:    12            Position(A)                                  Velocity(au)
C        -0.02911088    -0.01253190     0.01979911     0.00000773    -0.00003366    -0.00076717
N        -0.04062107    -0.02577546     1.30426195     0.00012382     0.00007887     0.00071137
H         0.90029265     0.11699158    -0.57640855     0.00069128     0.00022233    -0.00121513
H         0.81383498    -0.21168585     1.83972529    -0.00113572    -0.00029896    -0.00079976
H        -0.97504035    -0.15573565     1.82864678    -0.00152415    -0.00059228     0.00132539
H        -1.04065501     0.08816436    -0.56032761     0.00015583    -0.00002609    -0.00005419
     6
  Step:    13            Position(A)                                  Velocity(au)
C        -0.02909180    -0.01272368     0.01545146    -0.00000048    -0.00003552    -0.00079822
N        -0.03998162    -0.02533505     1.30828888     0.00010525     0.00008033     0.00073824
H         0.90405753     0.11826987    -0.58315701     0.00066300     0.00023809    -0.00121637
H         0.80766637    -0.21342615     1.83547777    -0.00107335    -0.00033350    -0.00072162
H        -0.98290593    -0.15895792     1.83572061    -0.00130539    -0.00056932     0.00122159
H        -1.03949915     0.08801352    -0.56055791     0.00025883    -0.00002836    -0.00003076
     6
  Step:    14            Position(A)                                  Velocity(au)
C        -0.02911616    -0.01292544     0.01095509    -0.00000788    -0.00003709    -0.00081703
N        -0.03945496    -0.02488543     1.31244143     0.00008295     0.00008182     0.00075315
H         0.90763848     0.11962955    -0.58988556     0.00062240     0.00025059    -0.00120246
H         0.80194261    -0.21538094     1.83172995    -0.00097118    -0.00037458    -0.00061715
H        -0.98950364    -0.16204348     1.84218164    -0.00106425    -0.00054067     0.00110066
H        -1.03778729     0.08785017    -0.56066843     0.00035416    -0.00003042    -0.00001122
     6
  Step:    15            Position(A)                                  Velocity(au)
C        -0.02917929    -0.01313562     0.00637670    -0.00001435    -0.00003839    -0.00082437
N        -0.03906029    -0.02442628     1.31665409     0.00005775     0.00008341     0.00075680
H         0.91097053     0.12105313    -0.59651269     0.00057147     0.00026007    -0.00117514
H         0.79687955    -0.21758662     1.82862314    -0.00083351    -0.00042180    -0.00049005
H        -0.99472656    -0.16496310     1.84794563    -0.00080950    -0.00050769     0.00096804
H        -1.03556549     0.08767569    -0.56068248     0.00043992    -0.00003218     0.00000369
     6
  Step:    16            Position(A)                                  Velocity(au)
C        -0.02927585    -0.01335280     0.00177852    -0.00001978    -0.00003947    -0.00082150
N        -0.03881208    -0.02395699     1.32086584     0.00003055     0.00008515     0.00075047
H         0.91399982     0.12252457    -0.60296677     0.00051239     0.00026694    -0.00113668
H         0.79266433    -0.22007621     1.82627496    -0.00066677    -0.00047446    -0.00034526
H        -0.99851462    -0.16769492     1.85295743    -0.00054916    -0.00047184     0.00082893
H        -1.03289027     0.08749195    -0.56062738     0.00051468    -0.00003358     0.00001336
     6
  Step:    17            Position(A)                                  Velocity(au)
C        -0.02939992    -0.01357580    -0.00278450    -0.00002413    -0.00004039    -0.00081006
N        -0.03871957    -0.02347672     1.32502314     0.00000227     0.00008710     0.00073583
H         0.91668460     0.12403000    -0.60918867     0.00044735     0.00027171    -0.00108959
H         0.78944386    -0.22287767     1.82477288    -0.00047887    -0.00053166    -0.00018847
H        -1.00085065    -0.17022497     1.85718970    -0.00029015    -0.00043458     0.00068806
H        -1.02982588     0.08730120    -0.56053354     0.00057758    -0.00003458     0.00001737
     6
  Step:    18            Position(A)                                  Velocity(au)
C        -0.02954525    -0.01380376    -0.00726656    -0.00002735    -0.00004120    -0.00079182
N        -0.03878672    -0.02298448     1.32908210    -0.00002622     0.00008928     0.00071477
H         0.91899495     0.12555850    -0.61513308     0.00037835     0.00027494    -0.00103643
H         0.78731725    -0.22601264     1.82417051    -0.00027852    -0.00059231    -0.00002558
H        -1.00175438    -0.17254737     1.86064026    -0.00003790    -0.00039722     0.00054935
H        -1.02644104     0.08710584    -0.56043339     0.00062827    -0.00003514     0.00001549
     6
  Step:    19            Position(A)                                  Velocity(au)
C        -0.02970545    -0.01403618    -0.01163166    -0.00002944    -0.00004199    -0.00076850
N        -0.03901253    -0.02247917     1.33300932    -0.00005413     0.00009172     0.00068909
H         0.92091200     0.12710190    -0.62076882     0.00030708     0.00027713    -0.00097951
H         0.78633194    -0.22949565     1.82448709    -0.00007449    -0.00065525     0.00013777
H        -1.00127417    -0.17466322     1.86332771     0.00020361    -0.00036088     0.00041588
H        -1.02280609     0.08690860    -0.56036050     0.00066681    -0.00003523     0.00000757
     6
  Step:    20            Position(A)                                  Velocity(au)
C        -0.02987417    -0.01427292    -0.01585322    -0.00003042    -0.00004281    -0.00074158
N        -0.03939154    -0.02195970     1.33678150    -0.00008077     0.00009440     0.00066042
H         0.92242606     0.12865491    -0.62607741     0.00023479     0.00027879    -0.00092070
H         0.78648496    -0.23333389     1.82570982     0.00012507    -0.00071923     0.00029652
H        -0.99947942    -0.17657953     1.86528701     0.00043155    -0.00032645     0.00028996
H        -1.01899065     0.08671225    -0.56034881     0.00069344    -0.00003485    -0.00000642
     6
  Step:    21            Position(A)                                  Velocity(au)
C        -0.03004512    -0.01451420    -0.01991281    -0.00003030    -0.00004371    -0.00071217
N        -0.03991448    -0.02142502     1.34038414    -0.00010553     0.00009730     0.00062998
H         0.92353392     0.13021511    -0.63105025     0.00016233     0.00028034    -0.00086131
H         0.78772856    -0.23752724     1.82779828     0.00031295    -0.00078294     0.00044634
H        -0.99645502    -0.17830866     1.86656572     0.00064382    -0.00029468     0.00017333
H        -1.01506247     0.08651948    -0.56043221     0.00070844    -0.00003400    -0.00002649
     6
  Step:    22            Position(A)                                  Velocity(au)
C        -0.03021216    -0.01476051    -0.02379807    -0.00002909    -0.00004473    -0.00068105
N        -0.04056885    -0.02087427     1.34380944    -0.00012789     0.00010037     0.00059866
H         0.92423695     0.13178227    -0.63568593     0.00009024     0.00028206    -0.00080213
H         0.78997618    -0.24206822     1.83068911     0.00048298    -0.00084505     0.00058361
H        -0.99229709    -0.17986691     1.86722065     0.00083858    -0.00026612     0.00006736
H        -1.01108743     0.08633293    -0.56064428     0.00071199    -0.00003270    -0.00005257
     6
  Step:    23            Position(A)                                  Velocity(au)
C        -0.03036923    -0.01501251    -0.02750077    -0.00002681    -0.00004588    -0.00064863
N        -0.04133934    -0.02030678     1.34705417    -0.00014735     0.00010354     0.00056696
H         0.92453930     0.13335773    -0.63998731     0.00001890     0.00028415    -0.00074361
H         0.79310968    -0.24694240     1.83430061     0.00063001    -0.00090413     0.00070533
H        -0.98711185    -0.18127365     1.86731617     0.00101393    -0.00024124    -0.00002673
H        -1.00712974     0.08615515    -0.56101797     0.00070419    -0.00003095    -0.00008457
     6
  Step:    24            Position(A)                                  Velocity(au)
C        -0.03051043    -0.01527099    -0.03101491    -0.00002274    -0.00004377    -0.00066183
N        -0.04220828    -0.01972223     1.35011764    -0.00016391     0.00010651     0.00057169
H         0.92444724     0.13494383    -0.64395961    -0.00007684     0.00031035    -0.00064219
H         0.79698582    -0.25212788     1.83853684     0.00072898    -0.00100411     0.00078361
H        -0.98101574    -0.18255099     1.86692327     0.00118424    -0.00017515    -0.00011101
H        -1.00325236     0.08598859    -0.56158519     0.00071242    -0.00008962    -0.00008841
     6
  Step:    25            Position(A)                                  Velocity(au)
C        -0.03062195    -0.01549887    -0.03485528    -0.00001715    -0.00003811    -0.00072134
N        -0.04316083    -0.01912325     1.35340704    -0.00017717     0.00010863     0.00061369
H         0.92368544     0.13680646    -0.64712364    -0.00019537     0.00035024    -0.00049875
H         0.80121042    -0.25810053     1.84300843     0.00077739    -0.00112993     0.00081711
H        -0.97395209    -0.18322004     1.86608254     0.00134763    -0.00007625    -0.00018787
H        -0.99921299     0.08515923    -0.56200046     0.00073672    -0.00019953    -0.00006296
     6
  Step:    26            Position(A)                                  Velocity(au)
C        -0.03070080    -0.01569415    -0.03902388    -0.00001095    -0.00003222    -0.00077862
N        -0.04417542    -0.01851608     1.35693137    -0.00018616     0.00010980     0.00065501
H         0.92227804     0.13883250    -0.64949722    -0.00030839     0.00037438    -0.00035920
H         0.80561719    -0.26467346     1.84760921     0.00079553    -0.00122697     0.00083156
H        -0.96605311    -0.18339760     1.86483739     0.00148247     0.00000480    -0.00025367
H        -0.99507261     0.08377320    -0.56228426     0.00074785    -0.00029411    -0.00004280
     6
  Step:    27            Position(A)                                  Velocity(au)
C        -0.03074347    -0.01585648    -0.04349719    -0.00000413    -0.00002630    -0.00083033
N        -0.04522705    -0.01790459     1.36067699    -0.00019036     0.00011029     0.00069268
H         0.92026269     0.14096164    -0.65111042    -0.00041336     0.00038934    -0.00022567
H         0.81003992    -0.27171857     1.85223792     0.00078372    -0.00130207     0.00082771
H        -0.95749819    -0.18316675     1.86326707     0.00158118     0.00007188    -0.00030313
H        -0.99091268     0.08189489    -0.56247553     0.00074294    -0.00037840    -0.00003035
     6
  Step:    28            Position(A)                                  Velocity(au)
C        -0.03074664    -0.01598603    -0.04824054     0.00000323    -0.00002043    -0.00087482
N        -0.04628839    -0.01729192     1.36462013    -0.00018942     0.00011020     0.00072518
H         0.91768978     0.14315418    -0.65200217    -0.00050784     0.00039807    -0.00009998
H         0.81431641    -0.27912645     1.85679672     0.00074330    -0.00135786     0.00080649
H        -0.94850202    -0.18259977     1.86147265     0.00163781     0.00012620    -0.00033266
H        -0.98682595     0.07957300    -0.56262116     0.00072044    -0.00045440    -0.00002673
     6
  Step:    29            Position(A)                                  Velocity(au)
C        -0.03070755    -0.01608331    -0.05321226     0.00001100    -0.00001468    -0.00091111
N        -0.04733061    -0.01668080     1.36873025    -0.00018319     0.00010963     0.00075152
H         0.91462299     0.14538228    -0.65222071    -0.00058944     0.00040243     0.00001604
H         0.81829448    -0.28679797     1.86119412     0.00067668    -0.00139602     0.00076940
H        -0.93930996    -0.18176522     1.85957277     0.00164768     0.00016824    -0.00033955
H        -0.98291203     0.07684866    -0.56277242     0.00067964    -0.00052318    -0.00003249
     6
  Step:    30            Position(A)                                  Velocity(au)
C        -0.03062435    -0.01614919    -0.05836627     0.00001899    -0.00000911    -0.00093868
N        -0.04832430    -0.01607354     1.37297231    -0.00017169     0.00010867     0.00077114
H         0.91113892     0.14762665    -0.65182395    -0.00065593     0.00040386     0.00012057
H         0.82183680    -0.29464136     1.86534761     0.00058711    -0.00141811     0.00071846
H        -0.93019021    -0.18073003     1.85769904     0.00160782     0.00019818    -0.00032200
H        -0.97927268     0.07375856    -0.56298228     0.00062065    -0.00058548    -0.00004773
     6
  Step:    31            Position(A)                                  Velocity(au)
C        -0.03049631    -0.01618470    -0.06365429     0.00002697    -0.00000378    -0.00095743
N        -0.04924058    -0.01547193     1.37730859    -0.00015516     0.00010743     0.00078382
H         0.90732634     0.14987491    -0.65087942    -0.00070538     0.00040358     0.00021202
H         0.82482561    -0.30257327     1.86918640     0.00047848    -0.00142579     0.00065603
H        -0.92142424    -0.17956062     1.85599075     0.00151732     0.00021628    -0.00027936
H        -0.97600774     0.07033568    -0.56330332     0.00054443    -0.00064190    -0.00007211
     6
  Step:    32            Position(A)                                  Velocity(au)
C        -0.03032403    -0.01619131    -0.06902793     0.00003469     0.00000126    -0.00096764
N        -0.05005217    -0.01487724     1.38170069    -0.00013403     0.00010601     0.00078969
H         0.90328406     0.15212079    -0.64946296    -0.00073632     0.00040267     0.00028907
H         0.82716501    -0.31051854     1.87265300     0.00035503    -0.00142092     0.00058473
H        -0.91329381    -0.17832163     1.85458820     0.00137773     0.00022309    -0.00021222
H        -0.97321007     0.06661060    -0.56378523     0.00045272    -0.00069300    -0.00010490
     6
  Step:    33            Position(A)                                  Velocity(au)
C        -0.03010961    -0.01617070    -0.07444064     0.00004189     0.00000596    -0.00096989
N        -0.05073463    -0.01429023     1.38611131    -0.00010892     0.00010451     0.00078919
H         0.89911857     0.15436352    -0.64765713    -0.00074773     0.00040213     0.00035079
H         0.82878310    -0.31841236     1.87570444     0.00022115    -0.00140562     0.00050724
H        -0.90606664    -0.17707381     1.85362514     0.00119308     0.00021957    -0.00012251
H        -0.97096123     0.06261080    -0.56447263     0.00034796    -0.00073946    -0.00014502
     6
  Step:    34            Position(A)                                  Velocity(au)
C        -0.02985669    -0.01612477    -0.07984937     0.00004828     0.00001031    -0.00096498
N        -0.05126742    -0.01371120     1.39050593    -0.00008062     0.00010300     0.00078298
H         0.89494135     0.15660744    -0.64554909    -0.00073907     0.00040282     0.00039663
H         0.82963240    -0.32620155     1.87831245     0.00008113    -0.00138214     0.00042616
H        -0.89998218    -0.17587176     1.85322127     0.00096980     0.00020710    -0.00001345
H        -0.96932774     0.05836023    -0.56540329     0.00023311    -0.00078202    -0.00019112
     6
  Step:    35            Position(A)                                  Velocity(au)
C        -0.02957050    -0.01605557    -0.08521560     0.00005361     0.00001428    -0.00095383
N        -0.05163480    -0.01314011     1.39485406    -0.00005004     0.00010154     0.00077190
H         0.89086621     0.15886143    -0.64322839    -0.00071024     0.00040553     0.00042647
H         0.82968896    -0.33384530     1.88046291    -0.00006102    -0.00135276     0.00034390
H        -0.89523791    -0.17476136     1.85347493     0.00071638     0.00018744     0.00011063
H        -0.96835836     0.05387886    -0.56660667     0.00011146    -0.00082145    -0.00024165
     6
  Step:    36            Position(A)                                  Velocity(au)
C        -0.02925773    -0.01596522    -0.09050610     0.00005764     0.00001787    -0.00093740
N        -0.05182653    -0.01257672     1.39913002    -0.00001819     0.00010015     0.00075684
H         0.88700624     0.16113825    -0.64078438    -0.00066166     0.00041087     0.00044060
H         0.82895067    -0.34131533     1.88215466    -0.00020165    -0.00131967     0.00026260
H        -0.89197842    -0.17377763     1.85445731     0.00044286     0.00016267     0.00024456
H        -0.96808243     0.04918253    -0.56810311    -0.00001351    -0.00085853    -0.00029496
     6
  Step:    37            Position(A)                                  Velocity(au)
C        -0.02892631    -0.01585585    -0.09569298     0.00006015     0.00002108    -0.00091659
N        -0.05183816    -0.01202073     1.40331332     0.00001389     0.00009882     0.00073869
H         0.88347078     0.16345368    -0.63830382    -0.00059422     0.00041926     0.00043967
H         0.82743514    -0.34859534     1.88339802    -0.00033751    -0.00128489     0.00018413
H        -0.89028809    -0.17294322     1.85620840     0.00016020     0.00013507     0.00038262
H        -0.96850936     0.04428306    -0.56990345    -0.00013833    -0.00089391    -0.00034938
     6
  Step:    38            Position(A)                                  Velocity(au)
C        -0.02858524    -0.01572954    -0.10075339     0.00006100     0.00002393    -0.00089223
N        -0.05167120    -0.01147192     1.40738844     0.00004519     0.00009753     0.00071828
H         0.88036304     0.16582550    -0.63586898    -0.00050921     0.00043099     0.00042466
H         0.82517745    -0.35568008     1.88421318    -0.00046572    -0.00125024     0.00011007
H        -0.89018748    -0.17226762     1.85873495    -0.00012034     0.00010695     0.00051895
H        -0.96962894     0.03918882    -0.57200913    -0.00025962    -0.00092816    -0.00040328
     6
  Step:    39            Position(A)                                  Velocity(au)
C        -0.02824428    -0.01558831    -0.10566907     0.00006007     0.00002643    -0.00086503
N        -0.05133285    -0.01093024     1.41134447     0.00007473     0.00009624     0.00069632
H         0.87777725     0.16827258    -0.63355561    -0.00040847     0.00044610     0.00039689
H         0.82222792    -0.36257435     1.88462867    -0.00058375    -0.00121733     0.00004175
H        -0.89163360    -0.17174738     1.86201078    -0.00038787     0.00008054     0.00064786
H        -0.97141221     0.03390527    -0.57441256    -0.00037420    -0.00096167    -0.00045509
     6
  Step:    40            Position(A)                                  Velocity(au)
C        -0.02791357    -0.01543402    -0.11042571     0.00005733     0.00002861    -0.00083560
N        -0.05083560    -0.01039580     1.41517438     0.00010163     0.00009492     0.00067341
H         0.87579576     0.17081363    -0.63143117    -0.00029434     0.00046447     0.00035795
H         0.81865026    -0.36929172     1.88468001    -0.00068936    -0.00118759    -0.00001969
H        -0.89452442    -0.17136704     1.86597904    -0.00063255     0.00005782     0.00076427
H        -0.97381305     0.02843590    -0.57709777    -0.00047919    -0.00099469    -0.00050341
     6
  Step:    41            Position(A)                                  Velocity(au)
C        -0.02760322    -0.01526840    -0.11501238     0.00005283     0.00003050    -0.00080450
N        -0.05019650    -0.00986888     1.41887426     0.00012515     0.00009354     0.00065004
H         0.87448612     0.17346606    -0.62955320    -0.00016968     0.00048574     0.00030973
H         0.81451979    -0.37585344     1.88440852    -0.00078064    -0.00116226    -0.00007331
H        -0.89870652    -0.17110082     1.87055648    -0.00084615     0.00004044     0.00086393
H        -0.97677027     0.02278309    -0.58004146    -0.00057211    -0.00102733    -0.00054701
     6
  Step:    42            Position(A)                                  Velocity(au)
C        -0.02732292    -0.01509296    -0.11942112     0.00004666     0.00003214    -0.00077220
N        -0.04943627    -0.00934985     1.42244268     0.00014472     0.00009211     0.00062655
H         0.87389846     0.17624493    -0.62796795    -0.00003782     0.00050942     0.00025435
H         0.80992156    -0.38228739     1.88386026    -0.00085601    -0.00114241    -0.00011838
H        -0.90398551    -0.17091483     1.87563901    -0.00102236     0.00002961     0.00094369
H        -0.98021003     0.01694890    -0.58321413    -0.00065093    -0.00105956    -0.00058489
     6
  Step:    43            Position(A)                                  Velocity(au)
C        -0.02708147    -0.01490901    -0.12364658     0.00003903     0.00003357    -0.00073914
N        -0.04857834    -0.00883902     1.42587997     0.00015996     0.00009062     0.00060323
H         0.87406329     0.17916205    -0.62670927     0.00009762     0.00053486     0.00019405
H         0.80494841    -0.38862708     1.88308484    -0.00091429    -0.00112898    -0.00015437
H        -0.91013785    -0.17076980     1.88110820    -0.00115711     0.00002608     0.00100156
H        -0.98404859     0.01093574    -0.58658135    -0.00071417    -0.00109132    -0.00061631
     6
  Step:    44            Position(A)                                  Velocity(au)
C        -0.02688649    -0.01471758    -0.12768575     0.00003018     0.00003484    -0.00070574
N        -0.04764772    -0.00833659     1.42918766     0.00017068     0.00008912     0.00058026
H         0.87498999     0.18222537    -0.62579823     0.00023277     0.00056133     0.00013115
H         0.79969849    -0.39491091     1.88213425    -0.00095478    -0.00112276    -0.00018096
H        -0.91692354    -0.17062324     1.88683787    -0.00124852     0.00003020     0.00103675
H        -0.98819540     0.00474649    -0.59010536    -0.00076087    -0.00112249    -0.00064081
     6