 Fermi distribution function

Calculation with static geometry


********************************************************************************
 iSCC Total electronic   Diff electronic      SCC error    
   11   -0.54256310E+01   -0.33750780E-13    0.50369930E-08
********************************************************************************

 Total charge:     1.00000000

 Atomic gross charges (e)
 Atom           Charge
    1       0.31689337
    2      -0.20631836
    3       0.14843153
    4       0.30261770
    5       0.30744776
    6       0.13092800

Nr. of electrons (up):     12.00000000
Atom populations (up)
 Atom       Population
    1       3.68310663
    2       5.20631836
    3       0.85156847
    4       0.69738230
    5       0.69255224
    6       0.86907200

l-shell populations (up)
 Atom Sh.   l       Population
    1   1   0       1.27489658
    1   2   1       2.40821005
    2   1   0       1.38717392
    2   2   1       3.81914444
    3   1   0       0.85156847
    4   1   0       0.69738230
    5   1   0       0.69255224
    6   1   0       0.86907200

Orbital populations (up)
 Atom Sh.   l   m       Population  Label
    1   1   0   0       1.27489658  s
    1   2   1  -1       0.56867988  p_y
    1   2   1   0       0.90814204  p_z
    1   2   1   1       0.93138813  p_x
    2   1   0   0       1.38717392  s
    2   2   1  -1       1.36658123  p_y
    2   2   1   0       1.08163515  p_z
    2   2   1   1       1.37092807  p_x
    3   1   0   0       0.85156847  s
    4   1   0   0       0.69738230  s
    5   1   0   0       0.69255224  s
    6   1   0   0       0.86907200  s

Fermi level:                        -0.4756390365 H          -12.9428 eV
Band energy:                        -8.9064822046 H         -242.3577 eV
TS:                                  0.0000000000 H            0.0000 eV
Band free energy (E-TS):            -8.9064822046 H         -242.3577 eV
Extrapolated E(0K):                 -8.9064822046 H         -242.3577 eV
Input / Output electrons (q):     12.0000000000     12.0000000000

Energy H0:                          -5.5583638159 H         -151.2508 eV
Energy SCC:                          0.1327327993 H            3.6118 eV
Total Electronic energy:            -5.4256310166 H         -147.6389 eV
Repulsive energy:                    0.2342671893 H            6.3747 eV
Total energy:                       -5.1913638273 H         -141.2642 eV
Extrapolated to 0:                  -5.1913638273 H         -141.2642 eV
Total Mermin free energy:           -5.1913638273 H         -141.2642 eV
Force related energy:               -5.1913638273 H         -141.2642 eV

SCC converged

Excitation Energy:                   0.0822172503 H            2.2372 eV

Total Forces
    1      0.007481354101     -0.002691166563     -0.064177120205
    2     -0.007422666976     -0.005720623219      0.059069939513
    3     -0.007375402042     -0.012941758481      0.000796992248
    4     -0.008800123385      0.013557130747      0.004037506703
    5      0.013904615081     -0.010283646291     -0.000883104621
    6      0.002212223221      0.018080063807      0.001155786361

Maximal derivative component:        0.641771E-01 au


