 Fermi distribution function

Calculation with static geometry


********************************************************************************
 iSCC Total electronic   Diff electronic      SCC error    
    9   -0.54418910E+01   -0.11191048E-12    0.53097562E-06
********************************************************************************

 Total charge:     1.00000000

 Atomic gross charges (e)
 Atom           Charge
    1       0.14661614
    2      -0.02322346
    3       0.18386055
    4       0.27892478
    5       0.26587322
    6       0.14794877

Nr. of electrons (up):     12.00000000
Atom populations (up)
 Atom       Population
    1       3.85338386
    2       5.02322346
    3       0.81613945
    4       0.72107522
    5       0.73412678
    6       0.85205123

l-shell populations (up)
 Atom Sh.   l       Population
    1   1   0       1.29909781
    1   2   1       2.55428605
    2   1   0       1.42176173
    2   2   1       3.60146173
    3   1   0       0.81613945
    4   1   0       0.72107522
    5   1   0       0.73412678
    6   1   0       0.85205123

Orbital populations (up)
 Atom Sh.   l   m       Population  Label
    1   1   0   0       1.29909781  s
    1   2   1  -1       0.60815348  p_y
    1   2   1   0       0.88754909  p_z
    1   2   1   1       1.05858348  p_x
    2   1   0   0       1.42176173  s
    2   2   1  -1       1.31663920  p_y
    2   2   1   0       1.10747453  p_z
    2   2   1   1       1.17734800  p_x
    3   1   0   0       0.81613945  s
    4   1   0   0       0.72107522  s
    5   1   0   0       0.73412678  s
    6   1   0   0       0.85205123  s

Fermi level:                        -0.4889675351 H          -13.3055 eV
Band energy:                        -8.9966274165 H         -244.8107 eV
TS:                                  0.0000000000 H            0.0000 eV
Band free energy (E-TS):            -8.9966274165 H         -244.8107 eV
Extrapolated E(0K):                 -8.9966274165 H         -244.8107 eV
Input / Output electrons (q):     12.0000000000     12.0000000000

Energy H0:                          -5.5766110997 H         -151.7473 eV
Energy SCC:                          0.1347200887 H            3.6659 eV
Total Electronic energy:            -5.4418910110 H         -148.0814 eV
Repulsive energy:                    0.2100401303 H            5.7155 eV
Total energy:                       -5.2318508807 H         -142.3659 eV
Extrapolated to 0:                  -5.2318508807 H         -142.3659 eV
Total Mermin free energy:           -5.2318508807 H         -142.3659 eV
Force related energy:               -5.2318508807 H         -142.3659 eV

SCC converged

Excitation Energy:                   0.1521905492 H            4.1413 eV

Total Forces
    1      0.004789468830      0.008190357880     -0.041891683272
    2     -0.009695241518     -0.005998235314      0.022285069577
    3     -0.004181214655     -0.007238668602      0.003232131184
    4     -0.002271915153      0.006500742409      0.009778603987
    5      0.010362002056     -0.006081677342      0.000728048806
    6      0.000996900441      0.004627480968      0.005867829718

Maximal derivative component:        0.418917E-01 au


