|===============================================================================
|
|  DFTB+ release 20.1
|
|  Copyright (C) 2006 - 2020  DFTB+ developers group
|
|===============================================================================
|
|  When publishing results obtained with DFTB+, please cite the following
|  reference:
|
|  * DFTB+, a software package for efficient approximate density functional
|    theory based atomistic simulations, J. Chem. Phys. 152, 124101 (2020).
|    [doi: 10.1063/1.5143190]
|
|  You should also cite additional publications crediting the parametrization
|  data you use. Please consult the documentation of the SK-files for the
|  references.
|
|===============================================================================

Reading input file 'dftb_in.hsd'
Parser version: 8

--------------------------------------------------------------------------------
Reading SK-files:
Done.


Processed input in HSD format written to 'dftb_pin.hsd'

Starting initialization...
--------------------------------------------------------------------------------
WARNING!
-> Excited state forces are not implemented yet for fractional occupations, kT=  0.3158E-02K
OpenMP threads:              1
Chosen random seed:          433437853
Mode:                        Static calculation
Self consistent charges:     Yes
SCC-tolerance:                 0.100000E-05
Max. scc iterations:                    100
Shell resolved Hubbard:      No
Spin polarisation:           No
Nr. of up electrons:             6.000000
Nr. of down electrons:           6.000000
Periodic boundaries:         No
Electronic solver:           Relatively robust
Mixer:                       Broyden mixer
Mixing parameter:                  0.200000
Maximal SCC-cycles:                     100
Nr. of chrg. vec. in memory:              0
Electronic temperature:        0.100000E-07 H      0.272114E-06 eV
Initial charges:             Set automatically (system chrg:   0.100E+01)
Included shells:             C:  s, p
                             N:  s, p
                             H:  s
Extra options:
                             Mulliken analysis
                             Force calculation
Force type                   original
                             Eigenvector printing

--------------------------------------------------------------------------------

***  Geometry step: 0

 iSCC Total electronic   Diff electronic      SCC error    
    1   -0.54366916E+01    0.00000000E+00    0.58368570E+00
    2   -0.54394679E+01   -0.27762956E-02    0.40697496E+00
    3   -0.54417250E+01   -0.22571587E-02    0.43967059E-01
    4   -0.54418904E+01   -0.16533861E-03    0.98259732E-02
    5   -0.54418892E+01    0.11147077E-05    0.43235898E-02
    6   -0.54418910E+01   -0.17630378E-05    0.10614339E-03
    7   -0.54418910E+01   -0.15313351E-09    0.26443601E-04
    8   -0.54418910E+01   -0.18367530E-10    0.18238186E-05
    9   -0.54418910E+01   -0.11191048E-12    0.53097562E-06
>> Charges saved for restart in charges.bin

Total Energy:                       -5.0796603315 H         -138.2246 eV
Extrapolated to 0:                  -5.2318508807 H         -142.3659 eV
Total Mermin free energy:           -5.0796603315 H         -138.2246 eV
Force related energy:               -5.2318508807 H         -142.3659 eV

--------------------------------------------------------------------------------
DFTB+ running times                          cpu [s]             wall clock [s]
--------------------------------------------------------------------------------
SCC                                    +     0.02  ( 52.0%)      0.15  ( 75.6%)
Post-SCC processing                    +     0.01  ( 38.7%)      0.04  ( 18.9%)
--------------------------------------------------------------------------------
Missing                                +     0.00  (  9.3%)      0.01  (  5.5%)
Total                                  =     0.03  (100.0%)      0.20  (100.0%)
--------------------------------------------------------------------------------
