|===============================================================================
|
|  DFTB+ release 20.1
|
|  Copyright (C) 2006 - 2020  DFTB+ developers group
|
|===============================================================================
|
|  When publishing results obtained with DFTB+, please cite the following
|  reference:
|
|  * DFTB+, a software package for efficient approximate density functional
|    theory based atomistic simulations, J. Chem. Phys. 152, 124101 (2020).
|    [doi: 10.1063/1.5143190]
|
|  You should also cite additional publications crediting the parametrization
|  data you use. Please consult the documentation of the SK-files for the
|  references.
|
|===============================================================================

Reading input file 'dftb_in.hsd'
Parser version: 8

--------------------------------------------------------------------------------
Reading SK-files:
Done.


Processed input in HSD format written to 'dftb_pin.hsd'

Starting initialization...
--------------------------------------------------------------------------------
OpenMP threads:              1
Chosen random seed:          451682525
Mode:                        Static calculation
Self consistent charges:     Yes
SCC-tolerance:                 0.100000E-05
Max. scc iterations:                   1000
Shell resolved Hubbard:      No
Spin polarisation:           No
Nr. of up electrons:             6.000000
Nr. of down electrons:           6.000000
Periodic boundaries:         No
Electronic solver:           Relatively robust
Maximal SCC-cycles:                    1000
Initial charges:             Set automatically (system chrg:   0.100E+01)
Included shells:             C:  s, p
                             N:  s, p
                             H:  s
Spin coupling constants:     C   1(s)-1(s):  -0.455900E-01
                             C   1(s)-2(p):  -0.293000E-01
                             C   2(p)-1(s):  -0.293000E-01
                             C   2(p)-2(p):  -0.275500E-01
                             N   1(s)-1(s):  -0.468700E-01
                             N   1(s)-2(p):  -0.317000E-01
                             N   2(p)-1(s):  -0.317000E-01
                             N   2(p)-2(p):  -0.307200E-01
                             H   1(s)-1(s):  -0.792500E-01
Range separated hybrid:      Yes
  Screening parameter omega:   0.300000E+00
  Range separated algorithm:   MatrixBased
Extra options:
                             Mulliken analysis
                             Force calculation
Force type                   original
                             Eigenvector printing


REKS Calcuation:             Yes
SSR(2,2) Calcuation:         Yes
Energy Functional:           (PPS+OSS)/2
Number of Core Orbitals:                  5
Number of Active Orbitals:                2
Number of Basis:                         12
Number of States:                         2
State-Averaging Weight:          0.500000
                                 0.500000
State of Interest:                        1
Initial Guess:               Diagonalize H0 matrix
Newton-Raphson for FON opt:  Yes
NR max. Iterations:                      50
Level Shifting:              Yes
Shift Value:                     0.300000
W Scale Factor:              C  =    3.200000
                             N  =    3.200000
                             H  =    3.200000
Transition Dipole:           No
Gradient of Microstate:      No
CP-REKS Solver:              Preconditioned Conjugate-Gradient
CG max. Iterations:                     100
CG Tolerance:                  0.100000E-07
Memory for A and Hxc:        Direct Updating Without Saving
Non-Adiabatic Coupling:      Yes

--------------------------------------------------------------------------------

***  Geometry step: 0

  iSCC       reks energy        Diff energy         x_a       SCC error   
    1       -6.1278355558       0.0000000000     0.563165    1.14746132
    2       -6.1308322699      -0.0029967141     0.564634    0.02817942
    3       -6.1316519146      -0.0008196447     0.565355    0.01360132
    4       -6.1319121156      -0.0002602011     0.565698    0.00719305
    5       -6.1320050206      -0.0000929049     0.565867    0.00402681
    6       -6.1320414076      -0.0000363870     0.565953    0.00244433
    7       -6.1320567915      -0.0000153839     0.565997    0.00149828
    8       -6.1320637626      -0.0000069712     0.566018    0.00092198
    9       -6.1320671509      -0.0000033883     0.566026    0.00065040
   10       -6.1320689295      -0.0000017786     0.566027    0.00047172
   11       -6.1320699475      -0.0000010180     0.566024    0.00034107
   12       -6.1320705873      -0.0000006398     0.566018    0.00024469
   13       -6.1320710285      -0.0000004413     0.566011    0.00017817
   14       -6.1320713590      -0.0000003305     0.566003    0.00013082
   15       -6.1320716234      -0.0000002644     0.565995    0.00011407
   16       -6.1320718453      -0.0000002219     0.565987    0.00011494
   17       -6.1320720379      -0.0000001926     0.565978    0.00011458
   18       -6.1320722089      -0.0000001709     0.565970    0.00011331
   19       -6.1320723627      -0.0000001539     0.565961    0.00011137
   20       -6.1320725026      -0.0000001398     0.565953    0.00010895
   21       -6.1320726304      -0.0000001278     0.565945    0.00010619
   22       -6.1320727477      -0.0000001173     0.565937    0.00010320
   23       -6.1320728555      -0.0000001079     0.565929    0.00010006
   24       -6.1320729550      -0.0000000994     0.565921    0.00009684
   25       -6.1320730467      -0.0000000917     0.565913    0.00009359
   26       -6.1320731313      -0.0000000846     0.565905    0.00009035
   27       -6.1320732094      -0.0000000781     0.565897    0.00008713
   28       -6.1320732816      -0.0000000722     0.565890    0.00008397
   29       -6.1320733483      -0.0000000667     0.565882    0.00008088
   30       -6.1320734099      -0.0000000616     0.565875    0.00007786
   31       -6.1320734668      -0.0000000569     0.565868    0.00007492
   32       -6.1320735194      -0.0000000526     0.565861    0.00007207
   33       -6.1320735680      -0.0000000486     0.565854    0.00006931
   34       -6.1320736129      -0.0000000449     0.565847    0.00006664
   35       -6.1320736544      -0.0000000415     0.565841    0.00006407
   36       -6.1320736927      -0.0000000383     0.565834    0.00006159
   37       -6.1320737281      -0.0000000354     0.565828    0.00005919
   38       -6.1320737608      -0.0000000327     0.565822    0.00005689
   39       -6.1320737911      -0.0000000302     0.565816    0.00005467
   40       -6.1320738190      -0.0000000279     0.565810    0.00005253
   41       -6.1320738448      -0.0000000258     0.565804    0.00005047
   42       -6.1320738686      -0.0000000238     0.565799    0.00004850
   43       -6.1320738907      -0.0000000220     0.565793    0.00004660
   44       -6.1320739110      -0.0000000203     0.565788    0.00004477
   45       -6.1320739298      -0.0000000188     0.565783    0.00004301
   46       -6.1320739471      -0.0000000174     0.565778    0.00004133
   47       -6.1320739632      -0.0000000160     0.565773    0.00003971
   48       -6.1320739780      -0.0000000148     0.565768    0.00003815
   49       -6.1320739917      -0.0000000137     0.565764    0.00003665
   50       -6.1320740043      -0.0000000126     0.565759    0.00003521
   51       -6.1320740160      -0.0000000117     0.565755    0.00003383
   52       -6.1320740268      -0.0000000108     0.565751    0.00003250
   53       -6.1320740367      -0.0000000100     0.565747    0.00003123
   54       -6.1320740459      -0.0000000092     0.565743    0.00003000
   55       -6.1320740544      -0.0000000085     0.565739    0.00002882
   56       -6.1320740623      -0.0000000078     0.565736    0.00002769
   57       -6.1320740695      -0.0000000072     0.565732    0.00002660
   58       -6.1320740762      -0.0000000067     0.565729    0.00002556
   59       -6.1320740824      -0.0000000062     0.565726    0.00002456
   60       -6.1320740881      -0.0000000057     0.565722    0.00002359
   61       -6.1320740934      -0.0000000053     0.565719    0.00002267
   62       -6.1320740983      -0.0000000049     0.565716    0.00002178
   63       -6.1320741028      -0.0000000045     0.565713    0.00002093
   64       -6.1320741069      -0.0000000042     0.565711    0.00002011
   65       -6.1320741108      -0.0000000038     0.565708    0.00001932
   66       -6.1320741143      -0.0000000035     0.565705    0.00001856
   67       -6.1320741176      -0.0000000033     0.565703    0.00001783
   68       -6.1320741206      -0.0000000030     0.565701    0.00001713
   69       -6.1320741234      -0.0000000028     0.565698    0.00001646
   70       -6.1320741260      -0.0000000026     0.565696    0.00001582
   71       -6.1320741284      -0.0000000024     0.565694    0.00001520
   72       -6.1320741306      -0.0000000022     0.565692    0.00001460
   73       -6.1320741326      -0.0000000020     0.565690    0.00001403
   74       -6.1320741345      -0.0000000019     0.565688    0.00001348
   75       -6.1320741362      -0.0000000017     0.565686    0.00001295
   76       -6.1320741378      -0.0000000016     0.565684    0.00001245
   77       -6.1320741393      -0.0000000015     0.565683    0.00001196
   78       -6.1320741406      -0.0000000014     0.565681    0.00001149
   79       -6.1320741419      -0.0000000013     0.565679    0.00001104
   80       -6.1320741431      -0.0000000012     0.565678    0.00001061
   81       -6.1320741441      -0.0000000011     0.565676    0.00001019
   82       -6.1320741451      -0.0000000010     0.565675    0.00000979
   83       -6.1320741460      -0.0000000009     0.565673    0.00000941
   84       -6.1320741469      -0.0000000008     0.565672    0.00000904
   85       -6.1320741477      -0.0000000008     0.565671    0.00000869
   86       -6.1320741484      -0.0000000007     0.565670    0.00000835
   87       -6.1320741491      -0.0000000007     0.565668    0.00000802
   88       -6.1320741497      -0.0000000006     0.565667    0.00000771
   89       -6.1320741502      -0.0000000006     0.565666    0.00000741
   90       -6.1320741508      -0.0000000005     0.565665    0.00000712
   91       -6.1320741513      -0.0000000005     0.565664    0.00000684
   92       -6.1320741517      -0.0000000004     0.565663    0.00000657
   93       -6.1320741521      -0.0000000004     0.565662    0.00000631
   94       -6.1320741525      -0.0000000004     0.565661    0.00000607
   95       -6.1320741529      -0.0000000004     0.565660    0.00000583
   96       -6.1320741532      -0.0000000003     0.565660    0.00000560
   97       -6.1320741535      -0.0000000003     0.565659    0.00000538
   98       -6.1320741538      -0.0000000003     0.565658    0.00000517
   99       -6.1320741540      -0.0000000003     0.565657    0.00000497
  100       -6.1320741543      -0.0000000002     0.565657    0.00000478
  101       -6.1320741545      -0.0000000002     0.565656    0.00000459
  102       -6.1320741547      -0.0000000002     0.565655    0.00000441
  103       -6.1320741549      -0.0000000002     0.565655    0.00000424
  104       -6.1320741550      -0.0000000002     0.565654    0.00000407
  105       -6.1320741552      -0.0000000002     0.565653    0.00000391
  106       -6.1320741553      -0.0000000001     0.565653    0.00000376
  107       -6.1320741555      -0.0000000001     0.565652    0.00000361
  108       -6.1320741556      -0.0000000001     0.565652    0.00000347
  109       -6.1320741557      -0.0000000001     0.565651    0.00000334
  110       -6.1320741558      -0.0000000001     0.565651    0.00000321
  111       -6.1320741559      -0.0000000001     0.565650    0.00000308
  112       -6.1320741560      -0.0000000001     0.565650    0.00000296
  113       -6.1320741561      -0.0000000001     0.565649    0.00000284
  114       -6.1320741562      -0.0000000001     0.565649    0.00000273
  115       -6.1320741562      -0.0000000001     0.565649    0.00000263
  116       -6.1320741563      -0.0000000001     0.565648    0.00000252
  117       -6.1320741564      -0.0000000001     0.565648    0.00000243
  118       -6.1320741564      -0.0000000001     0.565647    0.00000233
  119       -6.1320741565      -0.0000000001     0.565647    0.00000224
  120       -6.1320741565      -0.0000000000     0.565647    0.00000215
  121       -6.1320741566      -0.0000000000     0.565646    0.00000207
  122       -6.1320741566      -0.0000000000     0.565646    0.00000199
  123       -6.1320741567      -0.0000000000     0.565646    0.00000191
  124       -6.1320741567      -0.0000000000     0.565646    0.00000183
  125       -6.1320741567      -0.0000000000     0.565645    0.00000176
  126       -6.1320741567      -0.0000000000     0.565645    0.00000169
  127       -6.1320741568      -0.0000000000     0.565645    0.00000163
  128       -6.1320741568      -0.0000000000     0.565645    0.00000156
  129       -6.1320741568      -0.0000000000     0.565644    0.00000150
  130       -6.1320741568      -0.0000000000     0.565644    0.00000144
  131       -6.1320741569      -0.0000000000     0.565644    0.00000139
  132       -6.1320741569      -0.0000000000     0.565644    0.00000133
  133       -6.1320741569      -0.0000000000     0.565644    0.00000128
  134       -6.1320741569      -0.0000000000     0.565643    0.00000123
  135       -6.1320741569      -0.0000000000     0.565643    0.00000118
  136       -6.1320741569      -0.0000000000     0.565643    0.00000114
  137       -6.1320741570      -0.0000000000     0.565643    0.00000109
  138       -6.1320741570      -0.0000000000     0.565643    0.00000105
  139       -6.1320741570      -0.0000000000     0.565643    0.00000101
  140       -6.1320741570      -0.0000000000     0.565642    0.00000097
  
--------------------------------------------------
 Final SA-REKS(2,2) energy:      -6.13207416
  
 State     Energy      FON(1)    FON(2)   Spin
  PPS   -6.26289342   1.131285  0.868715  0.00
  OSS   -6.00125489   1.000000  1.000000  0.00
 Trip   -6.26424232   1.000000  1.000000  1.00
--------------------------------------------------

 Lagrangian Wab:  -0.00093346 -0.00093390

--------------------------------------------------
 SSR: 2SI-2SA-REKS(2,2) Hamiltonian matrix
               PPS           OSS
   PPS    -6.26289342   -0.00012282
   OSS    -0.00012282   -6.00125489
--------------------------------------------------

----------------------------------------------------------------
 SSR: 2SI-2SA-REKS(2,2) states
                    E_n       C_{PPS}    C_{OSS}
 SSR state  1   -6.26289348  -1.000000  -0.000469
 SSR state  2   -6.00125483   0.000469  -1.000000
----------------------------------------------------------------

 unrelaxed SSR FONs for S0:  1.131285  0.868715

Total Energy:                       -6.2628934824 H         -170.4220 eV
Extrapolated to 0:                  -6.2628934824 H         -170.4220 eV

----------------------------------------------------------------------------------
 Solving CP-REKS equation for  1 state vector...
----------------------------------------------------------------------------------
  CG solver: Constructing Y initial guess
  CG solver: Iteration    1    eps =    0.000565903898
  CG solver: Iteration    2    eps =    0.000001640062
  CG solver: Iteration    3    eps =    0.000000271960
  CG solver: Iteration    4    eps =    0.000000115802
  CG solver: Iteration    5    eps =    0.000003166050
  CG solver: Iteration    6    eps =    0.000002748577
  CG solver: Iteration    7    eps =    0.000000491642
  CG solver: Iteration    8    eps =    0.000000021508
  CG solver: Iteration    9    eps =    0.000000000678
  Convergence reached in CG solver after    9 iterations
  CG solver: Calculating converged R, Z, Q2 matrix
----------------------------------------------------------------------------------

----------------------------------------------------------------------------------
 Solving CP-REKS equation for SI between  1 and  2 state vectors...
----------------------------------------------------------------------------------
  CG solver: Constructing Y initial guess
  CG solver: Iteration    1    eps =    0.000060553631
  CG solver: Iteration    2    eps =    0.000074462195
  CG solver: Iteration    3    eps =    0.000185889885
  CG solver: Iteration    4    eps =    0.000016888536
  CG solver: Iteration    5    eps =    0.000002309602
  CG solver: Iteration    6    eps =    0.000000081542
  CG solver: Iteration    7    eps =    0.000000001909
  Convergence reached in CG solver after    7 iterations
  CG solver: Calculating converged R, Z, Q2 matrix
----------------------------------------------------------------------------------

--------------------------------------------------
 Gradient Information
--------------------------------------------------
           1 st state (SSR)
    -0.09657655    -0.01260263    -0.01223821
     0.00549823    -0.05273408     0.00590334
     0.15726843     0.07116506     0.02694421
    -0.04186522     0.04906932    -0.02801863
     0.00249026     0.00133637     0.00592979
    -0.02681515    -0.05623405     0.00147951

           2 st state (SSR)
    -0.14076134    -0.00913951    -0.16119907
     0.03977489    -0.07656766     0.11644427
     0.16217462     0.09212642     0.04431910
    -0.03231241     0.03735585    -0.01759272
    -0.00316495    -0.01819409     0.01016962
    -0.02571081    -0.02558101     0.00785880
--------------------------------------------------
 Coupling Information
--------------------------------------------------
 between  1 and  2 states
--------------------------------------------------
 g vector - difference gradient
     0.02209088    -0.00173107     0.07448092
    -0.01713861     0.01191677    -0.05527028
    -0.00245275    -0.01048045    -0.00868798
    -0.00477599     0.00585665    -0.00521304
     0.00282817     0.00976518    -0.00212013
    -0.00055169    -0.01532709    -0.00318949

 h vector - derivative coupling
     0.00162422    -0.00052938    -0.00048822
     0.00028792     0.00002822    -0.00022426
    -0.00036521    -0.00025225     0.00056287
    -0.00043993     0.00009423     0.00008446
    -0.00060245     0.00005935     0.00022963
    -0.00050455     0.00059982    -0.00016448

 G vector - GDV
     0.02209239    -0.00173156     0.07448043
    -0.01713833     0.01191679    -0.05527047
    -0.00245309    -0.01048068    -0.00868745
    -0.00477640     0.00585673    -0.00521296
     0.00282761     0.00976523    -0.00211991
    -0.00055217    -0.01532652    -0.00318964

 H vector - DCV - non-adiabatic coupling
     0.00612861    -0.00201710    -0.00213326
     0.00116195     0.00006511    -0.00065881
    -0.00138707    -0.00092652     0.00218249
    -0.00166431     0.00033914     0.00034151
    -0.00231275     0.00019181     0.00088526
    -0.00192642     0.00234756    -0.00061719
--------------------------------------------------


--------------------------------------------------------------------------------
DFTB+ running times                          cpu [s]             wall clock [s]
--------------------------------------------------------------------------------
SCC                                    +     0.06  ( 73.3%)      0.07  ( 70.1%)
Post-SCC processing                    +     0.02  ( 25.0%)      0.02  ( 24.7%)
  Force calculation                          0.02  ( 24.6%)      0.02  ( 19.6%)
--------------------------------------------------------------------------------
Missing                                +     0.00  (  1.7%)      0.00  (  5.2%)
Total                                  =     0.08  (100.0%)      0.10  (100.0%)
--------------------------------------------------------------------------------
