 Fermi distribution function

Calculation with static geometry


********************************************************************************
 iSCC Total electronic   Diff electronic      SCC error    
   12   -0.53606442E+01   -0.42366111E-12    0.81390761E-09
********************************************************************************

 Total charge:     1.00000000

 Atomic gross charges (e)
 Atom           Charge
    1       0.32184498
    2      -0.21004379
    3       0.15658576
    4       0.26941383
    5       0.30304432
    6       0.15915490

Nr. of electrons (up):     12.00000000
Atom populations (up)
 Atom       Population
    1       3.67815502
    2       5.21004379
    3       0.84341424
    4       0.73058617
    5       0.69695568
    6       0.84084510

l-shell populations (up)
 Atom Sh.   l       Population
    1   1   0       1.32108180
    1   2   1       2.35707322
    2   1   0       1.44133139
    2   2   1       3.76871240
    3   1   0       0.84341424
    4   1   0       0.73058617
    5   1   0       0.69695568
    6   1   0       0.84084510

Orbital populations (up)
 Atom Sh.   l   m       Population  Label
    1   1   0   0       1.32108180  s
    1   2   1  -1       0.53342002  p_y
    1   2   1   0       0.89467069  p_z
    1   2   1   1       0.92898251  p_x
    2   1   0   0       1.44133139  s
    2   2   1  -1       1.33833538  p_y
    2   2   1   0       1.11482548  p_z
    2   2   1   1       1.31555154  p_x
    3   1   0   0       0.84341424  s
    4   1   0   0       0.73058617  s
    5   1   0   0       0.69695568  s
    6   1   0   0       0.84084510  s

Fermi level:                        -0.4947811467 H          -13.4637 eV
Band energy:                        -8.8195877249 H         -239.9932 eV
TS:                                  0.0000000000 H            0.0000 eV
Band free energy (E-TS):            -8.8195877249 H         -239.9932 eV
Extrapolated E(0K):                 -8.8195877249 H         -239.9932 eV
Input / Output electrons (q):     12.0000000000     12.0000000000

Energy H0:                          -5.4957287868 H         -149.5464 eV
Energy SCC:                          0.1350845378 H            3.6758 eV
Total Electronic energy:            -5.3606442490 H         -145.8706 eV
Repulsive energy:                    0.1761743174 H            4.7939 eV
Total energy:                       -5.1844699315 H         -141.0766 eV
Extrapolated to 0:                  -5.1844699315 H         -141.0766 eV
Total Mermin free energy:           -5.1844699315 H         -141.0766 eV
Force related energy:               -5.1844699315 H         -141.0766 eV

SCC converged

Excitation Energy:                   0.0919130686 H            2.5011 eV

Total Forces
    1      0.009174422200     -0.007140836174      0.041461135616
    2     -0.005794805902     -0.007723042337     -0.046895884300
    3     -0.008743312404     -0.009458470762     -0.000007085687
    4     -0.008715251158      0.017999137415     -0.003591212150
    5      0.008979764540     -0.010294595856      0.003511545736
    6      0.005099182724      0.016617807714      0.005521500783

Maximal derivative component:        0.468959E-01 au


