|===============================================================================
|
|  DFTB+ release 20.1
|
|  Copyright (C) 2006 - 2020  DFTB+ developers group
|
|===============================================================================
|
|  When publishing results obtained with DFTB+, please cite the following
|  reference:
|
|  * DFTB+, a software package for efficient approximate density functional
|    theory based atomistic simulations, J. Chem. Phys. 152, 124101 (2020).
|    [doi: 10.1063/1.5143190]
|
|  You should also cite additional publications crediting the parametrization
|  data you use. Please consult the documentation of the SK-files for the
|  references.
|
|===============================================================================

Reading input file 'dftb_in.hsd'
Parser version: 8

--------------------------------------------------------------------------------
Reading SK-files:
Done.


Processed input in HSD format written to 'dftb_pin.hsd'

Starting initialization...
--------------------------------------------------------------------------------
OpenMP threads:              1
Chosen random seed:          450310752
Mode:                        Static calculation
Self consistent charges:     Yes
SCC-tolerance:                 0.100000E-05
Max. scc iterations:                   1000
Shell resolved Hubbard:      No
Spin polarisation:           No
Nr. of up electrons:             6.000000
Nr. of down electrons:           6.000000
Periodic boundaries:         No
Electronic solver:           Relatively robust
Maximal SCC-cycles:                    1000
Initial charges:             Set automatically (system chrg:   0.100E+01)
Included shells:             C:  s, p
                             N:  s, p
                             H:  s
Spin coupling constants:     C   1(s)-1(s):  -0.455900E-01
                             C   1(s)-2(p):  -0.293000E-01
                             C   2(p)-1(s):  -0.293000E-01
                             C   2(p)-2(p):  -0.275500E-01
                             N   1(s)-1(s):  -0.468700E-01
                             N   1(s)-2(p):  -0.317000E-01
                             N   2(p)-1(s):  -0.317000E-01
                             N   2(p)-2(p):  -0.307200E-01
                             H   1(s)-1(s):  -0.792500E-01
Range separated hybrid:      Yes
  Screening parameter omega:   0.300000E+00
  Range separated algorithm:   MatrixBased
Extra options:
                             Mulliken analysis
                             Force calculation
Force type                   original
                             Eigenvector printing


REKS Calcuation:             Yes
SSR(2,2) Calcuation:         Yes
Energy Functional:           (PPS+OSS)/2
Number of Core Orbitals:                  5
Number of Active Orbitals:                2
Number of Basis:                         12
Number of States:                         2
State-Averaging Weight:          0.500000
                                 0.500000
State of Interest:                        1
Initial Guess:               Diagonalize H0 matrix
Newton-Raphson for FON opt:  Yes
NR max. Iterations:                      50
Level Shifting:              Yes
Shift Value:                     0.300000
W Scale Factor:              C  =    3.200000
                             N  =    3.200000
                             H  =    3.200000
Transition Dipole:           No
Gradient of Microstate:      No
CP-REKS Solver:              Preconditioned Conjugate-Gradient
CG max. Iterations:                     100
CG Tolerance:                  0.100000E-07
Memory for A and Hxc:        Direct Updating Without Saving
Non-Adiabatic Coupling:      Yes

--------------------------------------------------------------------------------

***  Geometry step: 0

  iSCC       reks energy        Diff energy         x_a       SCC error   
 fa =  0.454899, MO swap between a(   6) and b(   7) occurs
    1       -6.0625889351       0.0000000000     0.409799    1.09382932
    2       -6.0687236328      -0.0061346977     0.562015    0.10254650
    3       -6.0725441747      -0.0038205419     0.521900    0.04563929
    4       -6.0735760275      -0.0010318527     0.509266    0.01837732
    5       -6.0739072171      -0.0003311897     0.505114    0.00938367
    6       -6.0740631069      -0.0001558898     0.503555    0.00532520
    7       -6.0742473806      -0.0001842737     0.502465    0.00311486
    8       -6.0746363309      -0.0003889503     0.500338    0.00280303
    9       -6.0746454796      -0.0000091487     0.500457    0.00167603
   10       -6.0746497621      -0.0000042825     0.500505    0.00094799
   11       -6.0746523017      -0.0000025396     0.500524    0.00058354
   12       -6.0746540373      -0.0000017356     0.500530    0.00038571
   13       -6.0746553463      -0.0000013090     0.500530    0.00029679
   14       -6.0746564081      -0.0000010618     0.500528    0.00023507
   15       -6.0746573178      -0.0000009098     0.500524    0.00018940
   16       -6.0746581301      -0.0000008123     0.500519    0.00015431
   17       -6.0746588779      -0.0000007478     0.500514    0.00012664
   18       -6.0746595818      -0.0000007040     0.500509    0.00010445
   19       -6.0746602553      -0.0000006735     0.500504    0.00008644
   20       -6.0746609071      -0.0000006518     0.500498    0.00007170
   21       -6.0746615431      -0.0000006359     0.500492    0.00005957
   22       -6.0746621671      -0.0000006240     0.500487    0.00004954
   23       -6.0746627819      -0.0000006148     0.500481    0.00004122
   24       -6.0746633893      -0.0000006074     0.500475    0.00003430
   25       -6.0746639905      -0.0000006012     0.500470    0.00002997
   26       -6.0746645865      -0.0000005960     0.500464    0.00002704
   27       -6.0746651778      -0.0000005913     0.500458    0.00002465
   28       -6.0746657649      -0.0000005871     0.500453    0.00002269
   29       -6.0746663481      -0.0000005832     0.500447    0.00002109
   30       -6.0746669275      -0.0000005794     0.500441    0.00001977
   31       -6.0746675034      -0.0000005759     0.500435    0.00001867
   32       -6.0746680759      -0.0000005724     0.500430    0.00001776
   33       -6.0746686449      -0.0000005691     0.500424    0.00001729
   34       -6.0746692107      -0.0000005658     0.500419    0.00001700
   35       -6.0746697732      -0.0000005625     0.500413    0.00001676
   36       -6.0746703325      -0.0000005593     0.500407    0.00001657
   37       -6.0746708885      -0.0000005561     0.500402    0.00001641
   38       -6.0746714415      -0.0000005529     0.500396    0.00001628
   39       -6.0746719912      -0.0000005498     0.500390    0.00001617
   40       -6.0746725378      -0.0000005466     0.500385    0.00001607
   41       -6.0746730813      -0.0000005435     0.500379    0.00001599
   42       -6.0746736217      -0.0000005404     0.500374    0.00001592
   43       -6.0746741590      -0.0000005373     0.500368    0.00001585
   44       -6.0746746932      -0.0000005342     0.500363    0.00001579
   45       -6.0746752244      -0.0000005311     0.500357    0.00001573
   46       -6.0746757524      -0.0000005281     0.500352    0.00001567
   47       -6.0746762775      -0.0000005250     0.500346    0.00001562
   48       -6.0746767995      -0.0000005220     0.500341    0.00001557
   49       -6.0746773184      -0.0000005190     0.500335    0.00001552
   50       -6.0746778344      -0.0000005159     0.500330    0.00001547
   51       -6.0746783473      -0.0000005129     0.500324    0.00001542
   52       -6.0746788572      -0.0000005099     0.500319    0.00001537
   53       -6.0746793642      -0.0000005070     0.500314    0.00001532
   54       -6.0746798682      -0.0000005040     0.500308    0.00001527
   55       -6.0746803692      -0.0000005010     0.500303    0.00001522
   56       -6.0746808672      -0.0000004981     0.500298    0.00001517
   57       -6.0746813623      -0.0000004951     0.500292    0.00001512
   58       -6.0746818545      -0.0000004922     0.500287    0.00001507
   59       -6.0746823438      -0.0000004893     0.500282    0.00001502
   60       -6.0746828301      -0.0000004864     0.500276    0.00001497
   61       -6.0746833136      -0.0000004835     0.500271    0.00001493
   62       -6.0746837942      -0.0000004806     0.500266    0.00001488
   63       -6.0746842718      -0.0000004777     0.500260    0.00001483
   64       -6.0746847467      -0.0000004748     0.500255    0.00001478
   65       -6.0746852186      -0.0000004720     0.500250    0.00001473
   66       -6.0746856878      -0.0000004691     0.500245    0.00001468
   67       -6.0746861541      -0.0000004663     0.500239    0.00001463
   68       -6.0746866175      -0.0000004635     0.500234    0.00001458
   69       -6.0746870782      -0.0000004607     0.500229    0.00001453
   70       -6.0746875361      -0.0000004579     0.500224    0.00001448
   71       -6.0746879912      -0.0000004551     0.500219    0.00001443
   72       -6.0746884435      -0.0000004523     0.500214    0.00001438
   73       -6.0746888930      -0.0000004495     0.500208    0.00001433
   74       -6.0746893398      -0.0000004468     0.500203    0.00001428
   75       -6.0746897838      -0.0000004441     0.500198    0.00001423
   76       -6.0746902252      -0.0000004413     0.500193    0.00001418
   77       -6.0746906638      -0.0000004386     0.500188    0.00001413
   78       -6.0746910997      -0.0000004359     0.500183    0.00001408
   79       -6.0746915329      -0.0000004332     0.500178    0.00001403
   80       -6.0746919634      -0.0000004305     0.500173    0.00001398
   81       -6.0746923913      -0.0000004279     0.500168    0.00001393
   82       -6.0746928165      -0.0000004252     0.500163    0.00001388
   83       -6.0746932390      -0.0000004225     0.500158    0.00001383
   84       -6.0746936589      -0.0000004199     0.500153    0.00001378
   85       -6.0746940762      -0.0000004173     0.500148    0.00001373
   86       -6.0746944909      -0.0000004147     0.500143    0.00001369
   87       -6.0746949030      -0.0000004121     0.500138    0.00001364
   88       -6.0746953124      -0.0000004095     0.500133    0.00001359
   89       -6.0746957194      -0.0000004069     0.500128    0.00001354
   90       -6.0746961237      -0.0000004043     0.500123    0.00001349
   91       -6.0746965255      -0.0000004018     0.500119    0.00001344
   92       -6.0746969248      -0.0000003993     0.500114    0.00001339
   93       -6.0746973215      -0.0000003967     0.500109    0.00001334
   94       -6.0746977157      -0.0000003942     0.500104    0.00001329
   95       -6.0746981074      -0.0000003917     0.500099    0.00001324
   96       -6.0746984966      -0.0000003892     0.500094    0.00001319
   97       -6.0746988833      -0.0000003867     0.500090    0.00001314
   98       -6.0746992676      -0.0000003843     0.500085    0.00001309
   99       -6.0746996494      -0.0000003818     0.500080    0.00001305
  100       -6.0747000287      -0.0000003793     0.500075    0.00001300
  101       -6.0747004056      -0.0000003769     0.500070    0.00001295
  102       -6.0747007801      -0.0000003745     0.500066    0.00001290
  103       -6.0747011522      -0.0000003721     0.500061    0.00001285
  104       -6.0747015219      -0.0000003697     0.500056    0.00001280
  105       -6.0747018892      -0.0000003673     0.500052    0.00001275
  106       -6.0747022541      -0.0000003649     0.500047    0.00001271
  107       -6.0747026166      -0.0000003626     0.500042    0.00001266
  108       -6.0747029768      -0.0000003602     0.500038    0.00001261
  109       -6.0747033347      -0.0000003579     0.500033    0.00001256
  110       -6.0747036902      -0.0000003555     0.500028    0.00001251
  111       -6.0747040435      -0.0000003532     0.500024    0.00001247
  112       -6.0747043944      -0.0000003509     0.500019    0.00001242
  113       -6.0747047430      -0.0000003486     0.500015    0.00001237
  114       -6.0747050893      -0.0000003463     0.500010    0.00001232
  115       -6.0747054334      -0.0000003441     0.500006    0.00001227
  116       -6.0747057752      -0.0000003418     0.500001    0.00001223
 fa =  0.499998, MO swap between a(   6) and b(   7) occurs
  117       -6.0747061148      -0.0000003396     0.499996    0.00001678
  118       -6.0745972704       0.0001088444     0.500041    0.01241242
  119       -6.0746452209      -0.0000479505     0.500017    0.00297297
  120       -6.0746711875      -0.0000259665     0.500007    0.00232549
  121       -6.0746860512      -0.0000148638     0.500006    0.00176224
  122       -6.0746948420      -0.0000087907     0.500010    0.00132137
  123       -6.0747001967      -0.0000053547     0.500017    0.00098700
  124       -6.0747035648      -0.0000033681     0.500024    0.00073628
  125       -6.0747057632      -0.0000021984     0.500032    0.00054915
  126       -6.0747072606      -0.0000014974     0.500039    0.00040975
  127       -6.0747083302      -0.0000010696     0.500046    0.00030595
  128       -6.0747091338      -0.0000008036     0.500053    0.00022864
  129       -6.0747097689      -0.0000006351     0.500059    0.00017101
  130       -6.0747102953      -0.0000005263     0.500064    0.00012800
  131       -6.0747107500      -0.0000004547     0.500070    0.00010755
  132       -6.0747111567      -0.0000004067     0.500075    0.00009199
  133       -6.0747115306      -0.0000003739     0.500079    0.00007807
  134       -6.0747118816      -0.0000003510     0.500084    0.00006573
  135       -6.0747122162      -0.0000003347     0.500089    0.00005490
  136       -6.0747125391      -0.0000003228     0.500093    0.00004545
  137       -6.0747128530      -0.0000003140     0.500098    0.00003725
  138       -6.0747131602      -0.0000003072     0.500102    0.00003017
  139       -6.0747134620      -0.0000003018     0.500106    0.00002528
  140       -6.0747137594      -0.0000002974     0.500111    0.00002168
  141       -6.0747140532      -0.0000002938     0.500115    0.00001883
  142       -6.0747143438      -0.0000002906     0.500119    0.00001694
  143       -6.0747146316      -0.0000002878     0.500123    0.00001536
  144       -6.0747149168      -0.0000002852     0.500128    0.00001402
  145       -6.0747151997      -0.0000002828     0.500132    0.00001290
  146       -6.0747154802      -0.0000002806     0.500136    0.00001196
  147       -6.0747157586      -0.0000002784     0.500140    0.00001117
  148       -6.0747160350      -0.0000002763     0.500144    0.00001050
  149       -6.0747163093      -0.0000002743     0.500148    0.00000994
  150       -6.0747165815      -0.0000002723     0.500153    0.00000947
  151       -6.0747168519      -0.0000002703     0.500157    0.00000907
  152       -6.0747171203      -0.0000002684     0.500161    0.00000873
  153       -6.0747173868      -0.0000002665     0.500165    0.00000844
  154       -6.0747176513      -0.0000002646     0.500169    0.00000820
  155       -6.0747179141      -0.0000002627     0.500173    0.00000814
  156       -6.0747181749      -0.0000002609     0.500177    0.00000848
  157       -6.0747184339      -0.0000002590     0.500181    0.00000877
  158       -6.0747186911      -0.0000002572     0.500185    0.00000900
  159       -6.0747189465      -0.0000002554     0.500189    0.00000919
  160       -6.0747192000      -0.0000002536     0.500193    0.00000934
  161       -6.0747194518      -0.0000002518     0.500197    0.00000946
  162       -6.0747197018      -0.0000002500     0.500201    0.00000956
  163       -6.0747199500      -0.0000002482     0.500205    0.00000964
  164       -6.0747201964      -0.0000002464     0.500208    0.00000969
  165       -6.0747204411      -0.0000002447     0.500212    0.00000973
  166       -6.0747206840      -0.0000002430     0.500216    0.00000976
  167       -6.0747209253      -0.0000002412     0.500220    0.00000978
  168       -6.0747211648      -0.0000002395     0.500224    0.00000979
  169       -6.0747214026      -0.0000002378     0.500228    0.00000979
  170       -6.0747216387      -0.0000002361     0.500232    0.00000978
  171       -6.0747218731      -0.0000002344     0.500235    0.00000977
  172       -6.0747221059      -0.0000002327     0.500239    0.00000975
  173       -6.0747223369      -0.0000002311     0.500243    0.00000973
  174       -6.0747225664      -0.0000002294     0.500247    0.00000971
  175       -6.0747227942      -0.0000002278     0.500251    0.00000968
  176       -6.0747230203      -0.0000002262     0.500254    0.00000965
  177       -6.0747232449      -0.0000002245     0.500258    0.00000962
  178       -6.0747234678      -0.0000002229     0.500262    0.00000959
  179       -6.0747236891      -0.0000002213     0.500266    0.00000956
  180       -6.0747239089      -0.0000002197     0.500269    0.00000952
  181       -6.0747241270      -0.0000002182     0.500273    0.00000949
  182       -6.0747243436      -0.0000002166     0.500277    0.00000945
  183       -6.0747245586      -0.0000002150     0.500280    0.00000941
  184       -6.0747247721      -0.0000002135     0.500284    0.00000937
  185       -6.0747249841      -0.0000002119     0.500288    0.00000934
  186       -6.0747251945      -0.0000002104     0.500291    0.00000930
  187       -6.0747254034      -0.0000002089     0.500295    0.00000926
  188       -6.0747256107      -0.0000002074     0.500298    0.00000922
  189       -6.0747258166      -0.0000002059     0.500302    0.00000918
  190       -6.0747260210      -0.0000002044     0.500305    0.00000914
  191       -6.0747262239      -0.0000002029     0.500309    0.00000910
  192       -6.0747264254      -0.0000002014     0.500313    0.00000906
  193       -6.0747266253      -0.0000002000     0.500316    0.00000903
  194       -6.0747268239      -0.0000001985     0.500320    0.00000899
  195       -6.0747270210      -0.0000001971     0.500323    0.00000895
  196       -6.0747272166      -0.0000001957     0.500327    0.00000891
  197       -6.0747274108      -0.0000001942     0.500330    0.00000887
  198       -6.0747276037      -0.0000001928     0.500334    0.00000883
  199       -6.0747277951      -0.0000001914     0.500337    0.00000879
  200       -6.0747279851      -0.0000001900     0.500341    0.00000875
  201       -6.0747281737      -0.0000001886     0.500344    0.00000872
  202       -6.0747283610      -0.0000001873     0.500347    0.00000868
  203       -6.0747285469      -0.0000001859     0.500351    0.00000864
  204       -6.0747287314      -0.0000001845     0.500354    0.00000860
  205       -6.0747289146      -0.0000001832     0.500358    0.00000856
  206       -6.0747290965      -0.0000001818     0.500361    0.00000853
  207       -6.0747292770      -0.0000001805     0.500364    0.00000849
  208       -6.0747294562      -0.0000001792     0.500368    0.00000845
  209       -6.0747296341      -0.0000001779     0.500371    0.00000841
  210       -6.0747298106      -0.0000001766     0.500374    0.00000838
  211       -6.0747299859      -0.0000001753     0.500378    0.00000834
  212       -6.0747301599      -0.0000001740     0.500381    0.00000830
  213       -6.0747303326      -0.0000001727     0.500384    0.00000827
  214       -6.0747305041      -0.0000001715     0.500387    0.00000823
  215       -6.0747306743      -0.0000001702     0.500391    0.00000819
  216       -6.0747308432      -0.0000001689     0.500394    0.00000816
  217       -6.0747310109      -0.0000001677     0.500397    0.00000812
  218       -6.0747311774      -0.0000001665     0.500400    0.00000808
  219       -6.0747313426      -0.0000001652     0.500404    0.00000805
  220       -6.0747315066      -0.0000001640     0.500407    0.00000801
  221       -6.0747316694      -0.0000001628     0.500410    0.00000798
  222       -6.0747318310      -0.0000001616     0.500413    0.00000794
  223       -6.0747319915      -0.0000001604     0.500416    0.00000791
  224       -6.0747321507      -0.0000001592     0.500420    0.00000787
  225       -6.0747323087      -0.0000001581     0.500423    0.00000784
  226       -6.0747324656      -0.0000001569     0.500426    0.00000780
  227       -6.0747326213      -0.0000001557     0.500429    0.00000777
  228       -6.0747327759      -0.0000001546     0.500432    0.00000773
  229       -6.0747329293      -0.0000001534     0.500435    0.00000770
  230       -6.0747330816      -0.0000001523     0.500438    0.00000766
  231       -6.0747332328      -0.0000001512     0.500441    0.00000763
  232       -6.0747333828      -0.0000001500     0.500444    0.00000759
  233       -6.0747335317      -0.0000001489     0.500448    0.00000756
  234       -6.0747336796      -0.0000001478     0.500451    0.00000753
  235       -6.0747338263      -0.0000001467     0.500454    0.00000749
  236       -6.0747339719      -0.0000001456     0.500457    0.00000746
  237       -6.0747341165      -0.0000001445     0.500460    0.00000743
  238       -6.0747342599      -0.0000001435     0.500463    0.00000739
  239       -6.0747344023      -0.0000001424     0.500466    0.00000736
  240       -6.0747345437      -0.0000001413     0.500469    0.00000733
  241       -6.0747346840      -0.0000001403     0.500472    0.00000729
  242       -6.0747348232      -0.0000001392     0.500475    0.00000726
  243       -6.0747349614      -0.0000001382     0.500478    0.00000723
  244       -6.0747350986      -0.0000001372     0.500480    0.00000720
  245       -6.0747352348      -0.0000001362     0.500483    0.00000716
  246       -6.0747353699      -0.0000001351     0.500486    0.00000713
  247       -6.0747355040      -0.0000001341     0.500489    0.00000710
  248       -6.0747356371      -0.0000001331     0.500492    0.00000707
  249       -6.0747357693      -0.0000001321     0.500495    0.00000703
  250       -6.0747359004      -0.0000001311     0.500498    0.00000700
  251       -6.0747360306      -0.0000001302     0.500501    0.00000697
  252       -6.0747361598      -0.0000001292     0.500504    0.00000694
  253       -6.0747362880      -0.0000001282     0.500506    0.00000691
  254       -6.0747364153      -0.0000001273     0.500509    0.00000688
  255       -6.0747365416      -0.0000001263     0.500512    0.00000685
  256       -6.0747366669      -0.0000001254     0.500515    0.00000682
  257       -6.0747367913      -0.0000001244     0.500518    0.00000679
  258       -6.0747369148      -0.0000001235     0.500520    0.00000676
  259       -6.0747370374      -0.0000001226     0.500523    0.00000672
  260       -6.0747371590      -0.0000001216     0.500526    0.00000669
  261       -6.0747372798      -0.0000001207     0.500529    0.00000666
  262       -6.0747373996      -0.0000001198     0.500531    0.00000663
  263       -6.0747375185      -0.0000001189     0.500534    0.00000660
  264       -6.0747376365      -0.0000001180     0.500537    0.00000657
  265       -6.0747377537      -0.0000001171     0.500540    0.00000654
  266       -6.0747378699      -0.0000001163     0.500542    0.00000652
  267       -6.0747379853      -0.0000001154     0.500545    0.00000649
  268       -6.0747380998      -0.0000001145     0.500548    0.00000646
  269       -6.0747382134      -0.0000001136     0.500550    0.00000643
  270       -6.0747383262      -0.0000001128     0.500553    0.00000640
  271       -6.0747384382      -0.0000001119     0.500556    0.00000637
  272       -6.0747385493      -0.0000001111     0.500558    0.00000634
  273       -6.0747386595      -0.0000001103     0.500561    0.00000631
  274       -6.0747387690      -0.0000001094     0.500564    0.00000628
  275       -6.0747388776      -0.0000001086     0.500566    0.00000626
  276       -6.0747389853      -0.0000001078     0.500569    0.00000623
  277       -6.0747390923      -0.0000001070     0.500571    0.00000620
  278       -6.0747391985      -0.0000001062     0.500574    0.00000617
  279       -6.0747393038      -0.0000001054     0.500577    0.00000614
  280       -6.0747394084      -0.0000001046     0.500579    0.00000612
  281       -6.0747395122      -0.0000001038     0.500582    0.00000609
  282       -6.0747396151      -0.0000001030     0.500584    0.00000606
  283       -6.0747397173      -0.0000001022     0.500587    0.00000603
  284       -6.0747398188      -0.0000001014     0.500589    0.00000601
  285       -6.0747399194      -0.0000001007     0.500592    0.00000598
  286       -6.0747400193      -0.0000000999     0.500594    0.00000595
  287       -6.0747401185      -0.0000000991     0.500597    0.00000592
  288       -6.0747402169      -0.0000000984     0.500599    0.00000590
  289       -6.0747403145      -0.0000000976     0.500602    0.00000587
  290       -6.0747404114      -0.0000000969     0.500604    0.00000584
  291       -6.0747405076      -0.0000000962     0.500607    0.00000582
  292       -6.0747406030      -0.0000000954     0.500609    0.00000579
  293       -6.0747406977      -0.0000000947     0.500612    0.00000577
  294       -6.0747407917      -0.0000000940     0.500614    0.00000574
  295       -6.0747408850      -0.0000000933     0.500617    0.00000571
  296       -6.0747409776      -0.0000000926     0.500619    0.00000569
  297       -6.0747410695      -0.0000000919     0.500621    0.00000566
  298       -6.0747411606      -0.0000000912     0.500624    0.00000564
  299       -6.0747412511      -0.0000000905     0.500626    0.00000561
  300       -6.0747413409      -0.0000000898     0.500629    0.00000559
  301       -6.0747414300      -0.0000000891     0.500631    0.00000556
  302       -6.0747415184      -0.0000000884     0.500633    0.00000553
  303       -6.0747416062      -0.0000000878     0.500636    0.00000551
  304       -6.0747416933      -0.0000000871     0.500638    0.00000548
  305       -6.0747417797      -0.0000000864     0.500640    0.00000546
  306       -6.0747418655      -0.0000000858     0.500643    0.00000544
  307       -6.0747419506      -0.0000000851     0.500645    0.00000541
  308       -6.0747420350      -0.0000000845     0.500647    0.00000539
  309       -6.0747421189      -0.0000000838     0.500650    0.00000536
  310       -6.0747422020      -0.0000000832     0.500652    0.00000534
  311       -6.0747422846      -0.0000000825     0.500654    0.00000531
  312       -6.0747423665      -0.0000000819     0.500656    0.00000529
  313       -6.0747424478      -0.0000000813     0.500659    0.00000527
  314       -6.0747425284      -0.0000000807     0.500661    0.00000524
  315       -6.0747426085      -0.0000000801     0.500663    0.00000522
  316       -6.0747426879      -0.0000000794     0.500665    0.00000519
  317       -6.0747427668      -0.0000000788     0.500668    0.00000517
  318       -6.0747428450      -0.0000000782     0.500670    0.00000515
  319       -6.0747429226      -0.0000000776     0.500672    0.00000512
  320       -6.0747429997      -0.0000000770     0.500674    0.00000510
  321       -6.0747430761      -0.0000000765     0.500676    0.00000508
  322       -6.0747431520      -0.0000000759     0.500679    0.00000505
  323       -6.0747432273      -0.0000000753     0.500681    0.00000503
  324       -6.0747433020      -0.0000000747     0.500683    0.00000501
  325       -6.0747433761      -0.0000000741     0.500685    0.00000499
  326       -6.0747434497      -0.0000000736     0.500687    0.00000496
  327       -6.0747435227      -0.0000000730     0.500689    0.00000494
  328       -6.0747435951      -0.0000000724     0.500692    0.00000492
  329       -6.0747436670      -0.0000000719     0.500694    0.00000490
  330       -6.0747437384      -0.0000000713     0.500696    0.00000488
  331       -6.0747438092      -0.0000000708     0.500698    0.00000485
  332       -6.0747438794      -0.0000000703     0.500700    0.00000483
  333       -6.0747439491      -0.0000000697     0.500702    0.00000481
  334       -6.0747440183      -0.0000000692     0.500704    0.00000479
  335       -6.0747440870      -0.0000000686     0.500706    0.00000477
  336       -6.0747441551      -0.0000000681     0.500708    0.00000474
  337       -6.0747442227      -0.0000000676     0.500710    0.00000472
  338       -6.0747442898      -0.0000000671     0.500713    0.00000470
  339       -6.0747443563      -0.0000000666     0.500715    0.00000468
  340       -6.0747444224      -0.0000000661     0.500717    0.00000466
  341       -6.0747444879      -0.0000000655     0.500719    0.00000464
  342       -6.0747445530      -0.0000000650     0.500721    0.00000462
  343       -6.0747446175      -0.0000000645     0.500723    0.00000460
  344       -6.0747446815      -0.0000000640     0.500725    0.00000458
  345       -6.0747447451      -0.0000000636     0.500727    0.00000455
  346       -6.0747448082      -0.0000000631     0.500729    0.00000453
  347       -6.0747448707      -0.0000000626     0.500731    0.00000451
  348       -6.0747449328      -0.0000000621     0.500733    0.00000449
  349       -6.0747449945      -0.0000000616     0.500735    0.00000447
  350       -6.0747450556      -0.0000000611     0.500737    0.00000445
  351       -6.0747451163      -0.0000000607     0.500739    0.00000443
  352       -6.0747451765      -0.0000000602     0.500740    0.00000441
  353       -6.0747452362      -0.0000000597     0.500742    0.00000439
  354       -6.0747452955      -0.0000000593     0.500744    0.00000437
  355       -6.0747453544      -0.0000000588     0.500746    0.00000435
  356       -6.0747454127      -0.0000000584     0.500748    0.00000433
  357       -6.0747454707      -0.0000000579     0.500750    0.00000431
  358       -6.0747455282      -0.0000000575     0.500752    0.00000430
  359       -6.0747455852      -0.0000000570     0.500754    0.00000428
  360       -6.0747456418      -0.0000000566     0.500756    0.00000426
  361       -6.0747456980      -0.0000000562     0.500758    0.00000424
  362       -6.0747457537      -0.0000000557     0.500760    0.00000422
  363       -6.0747458090      -0.0000000553     0.500761    0.00000420
  364       -6.0747458639      -0.0000000549     0.500763    0.00000418
  365       -6.0747459183      -0.0000000545     0.500765    0.00000416
  366       -6.0747459723      -0.0000000540     0.500767    0.00000414
  367       -6.0747460259      -0.0000000536     0.500769    0.00000412
  368       -6.0747460791      -0.0000000532     0.500771    0.00000411
  369       -6.0747461319      -0.0000000528     0.500772    0.00000409
  370       -6.0747461843      -0.0000000524     0.500774    0.00000407
  371       -6.0747462363      -0.0000000520     0.500776    0.00000405
  372       -6.0747462879      -0.0000000516     0.500778    0.00000403
  373       -6.0747463390      -0.0000000512     0.500780    0.00000401
  374       -6.0747463898      -0.0000000508     0.500781    0.00000400
  375       -6.0747464402      -0.0000000504     0.500783    0.00000399
  376       -6.0747464902      -0.0000000500     0.500785    0.00000398
  377       -6.0747465398      -0.0000000496     0.500787    0.00000396
  378       -6.0747465891      -0.0000000492     0.500789    0.00000395
  379       -6.0747466379      -0.0000000489     0.500790    0.00000394
  380       -6.0747466864      -0.0000000485     0.500792    0.00000392
  381       -6.0747467345      -0.0000000481     0.500794    0.00000391
  382       -6.0747467822      -0.0000000477     0.500796    0.00000390
  383       -6.0747468296      -0.0000000474     0.500797    0.00000388
  384       -6.0747468766      -0.0000000470     0.500799    0.00000387
  385       -6.0747469232      -0.0000000466     0.500801    0.00000386
  386       -6.0747469695      -0.0000000463     0.500802    0.00000385
  387       -6.0747470154      -0.0000000459     0.500804    0.00000383
  388       -6.0747470609      -0.0000000456     0.500806    0.00000382
  389       -6.0747471061      -0.0000000452     0.500807    0.00000381
  390       -6.0747471510      -0.0000000449     0.500809    0.00000379
  391       -6.0747471955      -0.0000000445     0.500811    0.00000378
  392       -6.0747472396      -0.0000000442     0.500813    0.00000377
  393       -6.0747472834      -0.0000000438     0.500814    0.00000376
  394       -6.0747473269      -0.0000000435     0.500816    0.00000374
  395       -6.0747473701      -0.0000000431     0.500817    0.00000373
  396       -6.0747474129      -0.0000000428     0.500819    0.00000372
  397       -6.0747474554      -0.0000000425     0.500821    0.00000371
  398       -6.0747474975      -0.0000000421     0.500822    0.00000369
  399       -6.0747475393      -0.0000000418     0.500824    0.00000368
  400       -6.0747475808      -0.0000000415     0.500826    0.00000367
  401       -6.0747476220      -0.0000000412     0.500827    0.00000366
  402       -6.0747476628      -0.0000000409     0.500829    0.00000364
  403       -6.0747477034      -0.0000000405     0.500830    0.00000363
  404       -6.0747477436      -0.0000000402     0.500832    0.00000362
  405       -6.0747477835      -0.0000000399     0.500834    0.00000361
  406       -6.0747478231      -0.0000000396     0.500835    0.00000359
  407       -6.0747478624      -0.0000000393     0.500837    0.00000358
  408       -6.0747479014      -0.0000000390     0.500838    0.00000357
  409       -6.0747479401      -0.0000000387     0.500840    0.00000356
  410       -6.0747479785      -0.0000000384     0.500841    0.00000355
  411       -6.0747480166      -0.0000000381     0.500843    0.00000353
  412       -6.0747480544      -0.0000000378     0.500845    0.00000352
  413       -6.0747480919      -0.0000000375     0.500846    0.00000351
  414       -6.0747481291      -0.0000000372     0.500848    0.00000350
  415       -6.0747481660      -0.0000000369     0.500849    0.00000349
  416       -6.0747482026      -0.0000000366     0.500851    0.00000347
  417       -6.0747482390      -0.0000000363     0.500852    0.00000346
  418       -6.0747482750      -0.0000000361     0.500854    0.00000345
  419       -6.0747483108      -0.0000000358     0.500855    0.00000344
  420       -6.0747483463      -0.0000000355     0.500857    0.00000343
  421       -6.0747483816      -0.0000000352     0.500858    0.00000341
  422       -6.0747484165      -0.0000000350     0.500860    0.00000340
  423       -6.0747484512      -0.0000000347     0.500861    0.00000339
  424       -6.0747484856      -0.0000000344     0.500863    0.00000338
  425       -6.0747485198      -0.0000000342     0.500864    0.00000337
  426       -6.0747485537      -0.0000000339     0.500865    0.00000336
  427       -6.0747485873      -0.0000000336     0.500867    0.00000334
  428       -6.0747486207      -0.0000000334     0.500868    0.00000333
  429       -6.0747486538      -0.0000000331     0.500870    0.00000332
  430       -6.0747486866      -0.0000000328     0.500871    0.00000331
  431       -6.0747487192      -0.0000000326     0.500873    0.00000330
  432       -6.0747487515      -0.0000000323     0.500874    0.00000329
  433       -6.0747487836      -0.0000000321     0.500876    0.00000327
  434       -6.0747488155      -0.0000000318     0.500877    0.00000326
  435       -6.0747488470      -0.0000000316     0.500878    0.00000325
  436       -6.0747488784      -0.0000000313     0.500880    0.00000324
  437       -6.0747489095      -0.0000000311     0.500881    0.00000323
  438       -6.0747489403      -0.0000000309     0.500883    0.00000322
  439       -6.0747489710      -0.0000000306     0.500884    0.00000321
  440       -6.0747490013      -0.0000000304     0.500885    0.00000320
  441       -6.0747490315      -0.0000000301     0.500887    0.00000318
  442       -6.0747490614      -0.0000000299     0.500888    0.00000317
  443       -6.0747490911      -0.0000000297     0.500889    0.00000316
  444       -6.0747491205      -0.0000000294     0.500891    0.00000315
  445       -6.0747491497      -0.0000000292     0.500892    0.00000314
  446       -6.0747491787      -0.0000000290     0.500893    0.00000313
  447       -6.0747492075      -0.0000000288     0.500895    0.00000312
  448       -6.0747492360      -0.0000000285     0.500896    0.00000311
  449       -6.0747492643      -0.0000000283     0.500898    0.00000310
  450       -6.0747492924      -0.0000000281     0.500899    0.00000309
  451       -6.0747493203      -0.0000000279     0.500900    0.00000307
  452       -6.0747493479      -0.0000000277     0.500901    0.00000306
  453       -6.0747493754      -0.0000000274     0.500903    0.00000305
  454       -6.0747494026      -0.0000000272     0.500904    0.00000304
  455       -6.0747494296      -0.0000000270     0.500905    0.00000303
  456       -6.0747494564      -0.0000000268     0.500907    0.00000302
  457       -6.0747494830      -0.0000000266     0.500908    0.00000301
  458       -6.0747495094      -0.0000000264     0.500909    0.00000300
  459       -6.0747495356      -0.0000000262     0.500911    0.00000299
  460       -6.0747495616      -0.0000000260     0.500912    0.00000298
  461       -6.0747495874      -0.0000000258     0.500913    0.00000297
  462       -6.0747496129      -0.0000000256     0.500914    0.00000296
  463       -6.0747496383      -0.0000000254     0.500916    0.00000295
  464       -6.0747496635      -0.0000000252     0.500917    0.00000294
  465       -6.0747496885      -0.0000000250     0.500918    0.00000293
  466       -6.0747497133      -0.0000000248     0.500919    0.00000292
  467       -6.0747497379      -0.0000000246     0.500921    0.00000290
  468       -6.0747497623      -0.0000000244     0.500922    0.00000289
  469       -6.0747497865      -0.0000000242     0.500923    0.00000288
  470       -6.0747498105      -0.0000000240     0.500924    0.00000287
  471       -6.0747498343      -0.0000000238     0.500926    0.00000286
  472       -6.0747498580      -0.0000000237     0.500927    0.00000285
  473       -6.0747498815      -0.0000000235     0.500928    0.00000284
  474       -6.0747499048      -0.0000000233     0.500929    0.00000283
  475       -6.0747499279      -0.0000000231     0.500930    0.00000282
  476       -6.0747499508      -0.0000000229     0.500932    0.00000281
  477       -6.0747499735      -0.0000000227     0.500933    0.00000280
  478       -6.0747499961      -0.0000000226     0.500934    0.00000279
  479       -6.0747500185      -0.0000000224     0.500935    0.00000278
  480       -6.0747500407      -0.0000000222     0.500936    0.00000277
  481       -6.0747500627      -0.0000000220     0.500938    0.00000276
  482       -6.0747500846      -0.0000000219     0.500939    0.00000275
  483       -6.0747501063      -0.0000000217     0.500940    0.00000274
  484       -6.0747501278      -0.0000000215     0.500941    0.00000273
  485       -6.0747501492      -0.0000000214     0.500942    0.00000272
  486       -6.0747501704      -0.0000000212     0.500943    0.00000271
  487       -6.0747501914      -0.0000000210     0.500944    0.00000270
  488       -6.0747502123      -0.0000000209     0.500946    0.00000269
  489       -6.0747502330      -0.0000000207     0.500947    0.00000268
  490       -6.0747502535      -0.0000000205     0.500948    0.00000267
  491       -6.0747502739      -0.0000000204     0.500949    0.00000267
  492       -6.0747502941      -0.0000000202     0.500950    0.00000266
  493       -6.0747503142      -0.0000000201     0.500951    0.00000265
  494       -6.0747503341      -0.0000000199     0.500952    0.00000264
  495       -6.0747503539      -0.0000000198     0.500954    0.00000263
  496       -6.0747503735      -0.0000000196     0.500955    0.00000262
  497       -6.0747503929      -0.0000000194     0.500956    0.00000261
  498       -6.0747504122      -0.0000000193     0.500957    0.00000260
  499       -6.0747504313      -0.0000000191     0.500958    0.00000259
  500       -6.0747504503      -0.0000000190     0.500959    0.00000258
  501       -6.0747504692      -0.0000000188     0.500960    0.00000257
  502       -6.0747504879      -0.0000000187     0.500961    0.00000256
  503       -6.0747505064      -0.0000000186     0.500962    0.00000255
  504       -6.0747505248      -0.0000000184     0.500963    0.00000254
  505       -6.0747505431      -0.0000000183     0.500964    0.00000253
  506       -6.0747505612      -0.0000000181     0.500965    0.00000252
  507       -6.0747505792      -0.0000000180     0.500967    0.00000251
  508       -6.0747505970      -0.0000000178     0.500968    0.00000251
  509       -6.0747506147      -0.0000000177     0.500969    0.00000250
  510       -6.0747506323      -0.0000000176     0.500970    0.00000249
  511       -6.0747506497      -0.0000000174     0.500971    0.00000248
  512       -6.0747506670      -0.0000000173     0.500972    0.00000247
  513       -6.0747506841      -0.0000000172     0.500973    0.00000246
  514       -6.0747507012      -0.0000000170     0.500974    0.00000245
  515       -6.0747507180      -0.0000000169     0.500975    0.00000244
  516       -6.0747507348      -0.0000000168     0.500976    0.00000243
  517       -6.0747507514      -0.0000000166     0.500977    0.00000242
  518       -6.0747507679      -0.0000000165     0.500978    0.00000242
  519       -6.0747507843      -0.0000000164     0.500979    0.00000241
  520       -6.0747508005      -0.0000000162     0.500980    0.00000240
  521       -6.0747508166      -0.0000000161     0.500981    0.00000239
  522       -6.0747508326      -0.0000000160     0.500982    0.00000238
  523       -6.0747508484      -0.0000000159     0.500983    0.00000237
  524       -6.0747508642      -0.0000000157     0.500984    0.00000236
  525       -6.0747508798      -0.0000000156     0.500985    0.00000235
  526       -6.0747508953      -0.0000000155     0.500986    0.00000235
  527       -6.0747509106      -0.0000000154     0.500987    0.00000234
  528       -6.0747509259      -0.0000000152     0.500988    0.00000233
  529       -6.0747509410      -0.0000000151     0.500989    0.00000232
  530       -6.0747509560      -0.0000000150     0.500990    0.00000231
  531       -6.0747509709      -0.0000000149     0.500991    0.00000230
  532       -6.0747509857      -0.0000000148     0.500992    0.00000230
  533       -6.0747510003      -0.0000000147     0.500993    0.00000229
  534       -6.0747510149      -0.0000000145     0.500994    0.00000228
  535       -6.0747510293      -0.0000000144     0.500995    0.00000227
  536       -6.0747510436      -0.0000000143     0.500996    0.00000226
  537       -6.0747510578      -0.0000000142     0.500996    0.00000225
  538       -6.0747510719      -0.0000000141     0.500997    0.00000225
  539       -6.0747510859      -0.0000000140     0.500998    0.00000224
  540       -6.0747510998      -0.0000000139     0.500999    0.00000223
  541       -6.0747511136      -0.0000000138     0.501000    0.00000222
  542       -6.0747346573       0.0000164563     0.501885    0.00051793
  543       -6.0747232293       0.0000114280     0.500327    0.00134097
  544       -6.0747252686      -0.0000020393     0.500319    0.00050959
  545       -6.0747263543      -0.0000010857     0.500322    0.00035940
  546       -6.0747270400      -0.0000006857     0.500327    0.00026664
  547       -6.0747275191      -0.0000004791     0.500332    0.00021217
  548       -6.0747278821      -0.0000003630     0.500338    0.00017035
  549       -6.0747281767      -0.0000002946     0.500343    0.00013754
  550       -6.0747284297      -0.0000002531     0.500347    0.00011140
  551       -6.0747286569      -0.0000002272     0.500352    0.00009034
  552       -6.0747288676      -0.0000002106     0.500356    0.00007324
  553       -6.0747290673      -0.0000001997     0.500360    0.00005929
  554       -6.0747292596      -0.0000001923     0.500364    0.00004785
  555       -6.0747294467      -0.0000001870     0.500367    0.00003845
  556       -6.0747296298      -0.0000001831     0.500371    0.00003069
  557       -6.0747298099      -0.0000001801     0.500374    0.00002428
  558       -6.0747299877      -0.0000001777     0.500378    0.00001897
  559       -6.0747301633      -0.0000001757     0.500381    0.00001456
  560       -6.0747303372      -0.0000001739     0.500384    0.00001090
  561       -6.0747305094      -0.0000001722     0.500388    0.00000785
  562       -6.0747306801      -0.0000001707     0.500391    0.00000531
  563       -6.0747308494      -0.0000001693     0.500394    0.00000455
  564       -6.0747310173      -0.0000001679     0.500397    0.00000500
  565       -6.0747311839      -0.0000001666     0.500401    0.00000534
  566       -6.0747313493      -0.0000001653     0.500404    0.00000558
  567       -6.0747315133      -0.0000001641     0.500407    0.00000576
  568       -6.0747316762      -0.0000001628     0.500410    0.00000588
  569       -6.0747318378      -0.0000001616     0.500413    0.00000597
  570       -6.0747319982      -0.0000001604     0.500417    0.00000603
  571       -6.0747321574      -0.0000001592     0.500420    0.00000607
  572       -6.0747323154      -0.0000001580     0.500423    0.00000609
  573       -6.0747324722      -0.0000001568     0.500426    0.00000610
  574       -6.0747326279      -0.0000001557     0.500429    0.00000611
  575       -6.0747327824      -0.0000001545     0.500432    0.00000625
  576       -6.0747329358      -0.0000001534     0.500435    0.00000644
  577       -6.0747330881      -0.0000001522     0.500438    0.00000660
  578       -6.0747332392      -0.0000001511     0.500442    0.00000673
  579       -6.0747333892      -0.0000001500     0.500445    0.00000683
  580       -6.0747335380      -0.0000001489     0.500448    0.00000692
  581       -6.0747336858      -0.0000001478     0.500451    0.00000698
  582       -6.0747338325      -0.0000001467     0.500454    0.00000703
  583       -6.0747339781      -0.0000001456     0.500457    0.00000707
  584       -6.0747341226      -0.0000001445     0.500460    0.00000709
  585       -6.0747342660      -0.0000001434     0.500463    0.00000711
  586       -6.0747344084      -0.0000001424     0.500466    0.00000712
  587       -6.0747345497      -0.0000001413     0.500469    0.00000712
  588       -6.0747346899      -0.0000001402     0.500472    0.00000712
  589       -6.0747348291      -0.0000001392     0.500475    0.00000711
  590       -6.0747349673      -0.0000001382     0.500478    0.00000710
  591       -6.0747351044      -0.0000001371     0.500481    0.00000709
  592       -6.0747352405      -0.0000001361     0.500483    0.00000707
  593       -6.0747353756      -0.0000001351     0.500486    0.00000705
  594       -6.0747355097      -0.0000001341     0.500489    0.00000703
  595       -6.0747356428      -0.0000001331     0.500492    0.00000701
  596       -6.0747357749      -0.0000001321     0.500495    0.00000699
  597       -6.0747359060      -0.0000001311     0.500498    0.00000696
  598       -6.0747360361      -0.0000001301     0.500501    0.00000694
  599       -6.0747361652      -0.0000001291     0.500504    0.00000691
  600       -6.0747362934      -0.0000001282     0.500507    0.00000688
  601       -6.0747364206      -0.0000001272     0.500509    0.00000686
  602       -6.0747365469      -0.0000001263     0.500512    0.00000683
  603       -6.0747366722      -0.0000001253     0.500515    0.00000680
  604       -6.0747367966      -0.0000001244     0.500518    0.00000677
  605       -6.0747369201      -0.0000001234     0.500521    0.00000674
  606       -6.0747370426      -0.0000001225     0.500523    0.00000671
  607       -6.0747371642      -0.0000001216     0.500526    0.00000669
  608       -6.0747372849      -0.0000001207     0.500529    0.00000666
  609       -6.0747374046      -0.0000001198     0.500532    0.00000663
  610       -6.0747375235      -0.0000001189     0.500534    0.00000660
  611       -6.0747376415      -0.0000001180     0.500537    0.00000657
  612       -6.0747377586      -0.0000001171     0.500540    0.00000654
  613       -6.0747378748      -0.0000001162     0.500542    0.00000651
  614       -6.0747379902      -0.0000001153     0.500545    0.00000648
  615       -6.0747381047      -0.0000001145     0.500548    0.00000645
  616       -6.0747382183      -0.0000001136     0.500551    0.00000642
  617       -6.0747383310      -0.0000001128     0.500553    0.00000640
  618       -6.0747384429      -0.0000001119     0.500556    0.00000637
  619       -6.0747385540      -0.0000001111     0.500558    0.00000634
  620       -6.0747386642      -0.0000001102     0.500561    0.00000631
  621       -6.0747387736      -0.0000001094     0.500564    0.00000628
  622       -6.0747388822      -0.0000001086     0.500566    0.00000625
  623       -6.0747389899      -0.0000001077     0.500569    0.00000623
  624       -6.0747390968      -0.0000001069     0.500572    0.00000620
  625       -6.0747392030      -0.0000001061     0.500574    0.00000617
  626       -6.0747393083      -0.0000001053     0.500577    0.00000614
  627       -6.0747394128      -0.0000001045     0.500579    0.00000611
  628       -6.0747395166      -0.0000001037     0.500582    0.00000609
  629       -6.0747396195      -0.0000001030     0.500584    0.00000606
  630       -6.0747397217      -0.0000001022     0.500587    0.00000603
  631       -6.0747398231      -0.0000001014     0.500589    0.00000600
  632       -6.0747399237      -0.0000001006     0.500592    0.00000598
  633       -6.0747400236      -0.0000000999     0.500594    0.00000595
  634       -6.0747401227      -0.0000000991     0.500597    0.00000592
  635       -6.0747402210      -0.0000000984     0.500599    0.00000590
  636       -6.0747403187      -0.0000000976     0.500602    0.00000587
  637       -6.0747404155      -0.0000000969     0.500604    0.00000584
  638       -6.0747405117      -0.0000000961     0.500607    0.00000582
  639       -6.0747406071      -0.0000000954     0.500609    0.00000579
  640       -6.0747407018      -0.0000000947     0.500612    0.00000576
  641       -6.0747407957      -0.0000000940     0.500614    0.00000574
  642       -6.0747408890      -0.0000000933     0.500617    0.00000571
  643       -6.0747409815      -0.0000000925     0.500619    0.00000569
  644       -6.0747410734      -0.0000000918     0.500621    0.00000566
  645       -6.0747411645      -0.0000000911     0.500624    0.00000563
  646       -6.0747412549      -0.0000000904     0.500626    0.00000561
  647       -6.0747413447      -0.0000000898     0.500629    0.00000558
  648       -6.0747414338      -0.0000000891     0.500631    0.00000556
  649       -6.0747415222      -0.0000000884     0.500633    0.00000553
  650       -6.0747416099      -0.0000000877     0.500636    0.00000551
  651       -6.0747416970      -0.0000000871     0.500638    0.00000548
  652       -6.0747417834      -0.0000000864     0.500640    0.00000546
  653       -6.0747418691      -0.0000000857     0.500643    0.00000543
  654       -6.0747419542      -0.0000000851     0.500645    0.00000541
  655       -6.0747420386      -0.0000000844     0.500647    0.00000539
  656       -6.0747421224      -0.0000000838     0.500650    0.00000536
  657       -6.0747422056      -0.0000000832     0.500652    0.00000534
  658       -6.0747422881      -0.0000000825     0.500654    0.00000531
  659       -6.0747423700      -0.0000000819     0.500656    0.00000529
  660       -6.0747424512      -0.0000000813     0.500659    0.00000526
  661       -6.0747425319      -0.0000000806     0.500661    0.00000524
  662       -6.0747426119      -0.0000000800     0.500663    0.00000522
  663       -6.0747426913      -0.0000000794     0.500665    0.00000519
  664       -6.0747427701      -0.0000000788     0.500668    0.00000517
  665       -6.0747428483      -0.0000000782     0.500670    0.00000515
  666       -6.0747429259      -0.0000000776     0.500672    0.00000512
  667       -6.0747430029      -0.0000000770     0.500674    0.00000510
  668       -6.0747430794      -0.0000000764     0.500677    0.00000508
  669       -6.0747431552      -0.0000000758     0.500679    0.00000505
  670       -6.0747432305      -0.0000000753     0.500681    0.00000503
  671       -6.0747433051      -0.0000000747     0.500683    0.00000501
  672       -6.0747433793      -0.0000000741     0.500685    0.00000499
  673       -6.0747434528      -0.0000000735     0.500687    0.00000496
  674       -6.0747435258      -0.0000000730     0.500690    0.00000494
  675       -6.0747435982      -0.0000000724     0.500692    0.00000492
  676       -6.0747436701      -0.0000000719     0.500694    0.00000490
  677       -6.0747437414      -0.0000000713     0.500696    0.00000487
  678       -6.0747438122      -0.0000000708     0.500698    0.00000485
  679       -6.0747438824      -0.0000000702     0.500700    0.00000483
  680       -6.0747439521      -0.0000000697     0.500702    0.00000481
  681       -6.0747440212      -0.0000000692     0.500704    0.00000479
  682       -6.0747440899      -0.0000000686     0.500706    0.00000476
  683       -6.0747441580      -0.0000000681     0.500708    0.00000474
  684       -6.0747442255      -0.0000000676     0.500711    0.00000472
  685       -6.0747442926      -0.0000000671     0.500713    0.00000470
  686       -6.0747443591      -0.0000000665     0.500715    0.00000468
  687       -6.0747444252      -0.0000000660     0.500717    0.00000466
  688       -6.0747444907      -0.0000000655     0.500719    0.00000464
  689       -6.0747445557      -0.0000000650     0.500721    0.00000462
  690       -6.0747446202      -0.0000000645     0.500723    0.00000460
  691       -6.0747446843      -0.0000000640     0.500725    0.00000457
  692       -6.0747447478      -0.0000000635     0.500727    0.00000455
  693       -6.0747448108      -0.0000000630     0.500729    0.00000453
  694       -6.0747448734      -0.0000000626     0.500731    0.00000451
  695       -6.0747449355      -0.0000000621     0.500733    0.00000449
  696       -6.0747449971      -0.0000000616     0.500735    0.00000447
  697       -6.0747450582      -0.0000000611     0.500737    0.00000445
  698       -6.0747451189      -0.0000000607     0.500739    0.00000443
  699       -6.0747451791      -0.0000000602     0.500741    0.00000441
  700       -6.0747452388      -0.0000000597     0.500743    0.00000439
  701       -6.0747452980      -0.0000000593     0.500744    0.00000437
  702       -6.0747453569      -0.0000000588     0.500746    0.00000435
  703       -6.0747454152      -0.0000000584     0.500748    0.00000433
  704       -6.0747454731      -0.0000000579     0.500750    0.00000431
  705       -6.0747455306      -0.0000000575     0.500752    0.00000429
  706       -6.0747455876      -0.0000000570     0.500754    0.00000427
  707       -6.0747456442      -0.0000000566     0.500756    0.00000426
  708       -6.0747457003      -0.0000000561     0.500758    0.00000424
  709       -6.0747457560      -0.0000000557     0.500760    0.00000422
  710       -6.0747458113      -0.0000000553     0.500761    0.00000420
  711       -6.0747458662      -0.0000000549     0.500763    0.00000418
  712       -6.0747459206      -0.0000000544     0.500765    0.00000416
  713       -6.0747459746      -0.0000000540     0.500767    0.00000414
  714       -6.0747460282      -0.0000000536     0.500769    0.00000412
  715       -6.0747460814      -0.0000000532     0.500771    0.00000410
  716       -6.0747461342      -0.0000000528     0.500773    0.00000409
  717       -6.0747461865      -0.0000000524     0.500774    0.00000407
  718       -6.0747462385      -0.0000000520     0.500776    0.00000405
  719       -6.0747462901      -0.0000000516     0.500778    0.00000403
  720       -6.0747463412      -0.0000000512     0.500780    0.00000401
  721       -6.0747463920      -0.0000000508     0.500782    0.00000400
  722       -6.0747464424      -0.0000000504     0.500783    0.00000399
  723       -6.0747464923      -0.0000000500     0.500785    0.00000397
  724       -6.0747465419      -0.0000000496     0.500787    0.00000396
  725       -6.0747465912      -0.0000000492     0.500789    0.00000395
  726       -6.0747466400      -0.0000000488     0.500790    0.00000394
  727       -6.0747466884      -0.0000000485     0.500792    0.00000392
  728       -6.0747467365      -0.0000000481     0.500794    0.00000391
  729       -6.0747467842      -0.0000000477     0.500796    0.00000390
  730       -6.0747468316      -0.0000000473     0.500797    0.00000388
  731       -6.0747468786      -0.0000000470     0.500799    0.00000387
  732       -6.0747469252      -0.0000000466     0.500801    0.00000386
  733       -6.0747469714      -0.0000000463     0.500802    0.00000384
  734       -6.0747470173      -0.0000000459     0.500804    0.00000383
  735       -6.0747470628      -0.0000000455     0.500806    0.00000382
  736       -6.0747471080      -0.0000000452     0.500808    0.00000381
  737       -6.0747471529      -0.0000000448     0.500809    0.00000379
  738       -6.0747471974      -0.0000000445     0.500811    0.00000378
  739       -6.0747472415      -0.0000000441     0.500813    0.00000377
  740       -6.0747472853      -0.0000000438     0.500814    0.00000376
  741       -6.0747473288      -0.0000000435     0.500816    0.00000374
  742       -6.0747473719      -0.0000000431     0.500818    0.00000373
  743       -6.0747474147      -0.0000000428     0.500819    0.00000372
  744       -6.0747474572      -0.0000000425     0.500821    0.00000371
  745       -6.0747474993      -0.0000000421     0.500822    0.00000369
  746       -6.0747475411      -0.0000000418     0.500824    0.00000368
  747       -6.0747475826      -0.0000000415     0.500826    0.00000367
  748       -6.0747476237      -0.0000000412     0.500827    0.00000366
  749       -6.0747476646      -0.0000000408     0.500829    0.00000364
  750       -6.0747477051      -0.0000000405     0.500830    0.00000363
  751       -6.0747477453      -0.0000000402     0.500832    0.00000362
  752       -6.0747477852      -0.0000000399     0.500834    0.00000361
  753       -6.0747478248      -0.0000000396     0.500835    0.00000359
  754       -6.0747478641      -0.0000000393     0.500837    0.00000358
  755       -6.0747479031      -0.0000000390     0.500838    0.00000357
  756       -6.0747479417      -0.0000000387     0.500840    0.00000356
  757       -6.0747479801      -0.0000000384     0.500841    0.00000354
  758       -6.0747480182      -0.0000000381     0.500843    0.00000353
  759       -6.0747480560      -0.0000000378     0.500845    0.00000352
  760       -6.0747480935      -0.0000000375     0.500846    0.00000351
  761       -6.0747481306      -0.0000000372     0.500848    0.00000350
  762       -6.0747481676      -0.0000000369     0.500849    0.00000348
  763       -6.0747482042      -0.0000000366     0.500851    0.00000347
  764       -6.0747482405      -0.0000000363     0.500852    0.00000346
  765       -6.0747482766      -0.0000000361     0.500854    0.00000345
  766       -6.0747483123      -0.0000000358     0.500855    0.00000344
  767       -6.0747483478      -0.0000000355     0.500857    0.00000343
  768       -6.0747483831      -0.0000000352     0.500858    0.00000341
  769       -6.0747484180      -0.0000000349     0.500860    0.00000340
  770       -6.0747484527      -0.0000000347     0.500861    0.00000339
  771       -6.0747484871      -0.0000000344     0.500863    0.00000338
  772       -6.0747485212      -0.0000000341     0.500864    0.00000337
  773       -6.0747485551      -0.0000000339     0.500866    0.00000335
  774       -6.0747485887      -0.0000000336     0.500867    0.00000334
  775       -6.0747486221      -0.0000000334     0.500868    0.00000333
  776       -6.0747486552      -0.0000000331     0.500870    0.00000332
  777       -6.0747486880      -0.0000000328     0.500871    0.00000331
  778       -6.0747487206      -0.0000000326     0.500873    0.00000330
  779       -6.0747487529      -0.0000000323     0.500874    0.00000329
  780       -6.0747487850      -0.0000000321     0.500876    0.00000327
  781       -6.0747488168      -0.0000000318     0.500877    0.00000326
  782       -6.0747488484      -0.0000000316     0.500878    0.00000325
  783       -6.0747488797      -0.0000000313     0.500880    0.00000324
  784       -6.0747489108      -0.0000000311     0.500881    0.00000323
  785       -6.0747489416      -0.0000000308     0.500883    0.00000322
  786       -6.0747489723      -0.0000000306     0.500884    0.00000321
  787       -6.0747490026      -0.0000000304     0.500885    0.00000320
  788       -6.0747490328      -0.0000000301     0.500887    0.00000318
  789       -6.0747490626      -0.0000000299     0.500888    0.00000317
  790       -6.0747490923      -0.0000000297     0.500889    0.00000316
  791       -6.0747491217      -0.0000000294     0.500891    0.00000315
  792       -6.0747491509      -0.0000000292     0.500892    0.00000314
  793       -6.0747491799      -0.0000000290     0.500894    0.00000313
  794       -6.0747492087      -0.0000000288     0.500895    0.00000312
  795       -6.0747492372      -0.0000000285     0.500896    0.00000311
  796       -6.0747492655      -0.0000000283     0.500898    0.00000310
  797       -6.0747492936      -0.0000000281     0.500899    0.00000308
  798       -6.0747493215      -0.0000000279     0.500900    0.00000307
  799       -6.0747493491      -0.0000000276     0.500902    0.00000306
  800       -6.0747493765      -0.0000000274     0.500903    0.00000305
  801       -6.0747494038      -0.0000000272     0.500904    0.00000304
  802       -6.0747494308      -0.0000000270     0.500905    0.00000303
  803       -6.0747494576      -0.0000000268     0.500907    0.00000302
  804       -6.0747494842      -0.0000000266     0.500908    0.00000301
  805       -6.0747495105      -0.0000000264     0.500909    0.00000300
  806       -6.0747495367      -0.0000000262     0.500911    0.00000299
  807       -6.0747495627      -0.0000000260     0.500912    0.00000298
  808       -6.0747495885      -0.0000000258     0.500913    0.00000297
  809       -6.0747496140      -0.0000000256     0.500914    0.00000296
  810       -6.0747496394      -0.0000000254     0.500916    0.00000295
  811       -6.0747496646      -0.0000000252     0.500917    0.00000294
  812       -6.0747496895      -0.0000000250     0.500918    0.00000293
  813       -6.0747497143      -0.0000000248     0.500919    0.00000291
  814       -6.0747497389      -0.0000000246     0.500921    0.00000290
  815       -6.0747497633      -0.0000000244     0.500922    0.00000289
  816       -6.0747497875      -0.0000000242     0.500923    0.00000288
  817       -6.0747498115      -0.0000000240     0.500924    0.00000287
  818       -6.0747498354      -0.0000000238     0.500926    0.00000286
  819       -6.0747498590      -0.0000000236     0.500927    0.00000285
  820       -6.0747498825      -0.0000000235     0.500928    0.00000284
  821       -6.0747499057      -0.0000000233     0.500929    0.00000283
  822       -6.0747499288      -0.0000000231     0.500930    0.00000282
  823       -6.0747499517      -0.0000000229     0.500932    0.00000281
  824       -6.0747499745      -0.0000000227     0.500933    0.00000280
  825       -6.0747499970      -0.0000000226     0.500934    0.00000279
  826       -6.0747500194      -0.0000000224     0.500935    0.00000278
  827       -6.0747500416      -0.0000000222     0.500936    0.00000277
  828       -6.0747500637      -0.0000000220     0.500938    0.00000276
  829       -6.0747500855      -0.0000000219     0.500939    0.00000275
  830       -6.0747501072      -0.0000000217     0.500940    0.00000274
  831       -6.0747501287      -0.0000000215     0.500941    0.00000273
  832       -6.0747501501      -0.0000000214     0.500942    0.00000272
  833       -6.0747501713      -0.0000000212     0.500943    0.00000271
  834       -6.0747501923      -0.0000000210     0.500945    0.00000270
  835       -6.0747502132      -0.0000000209     0.500946    0.00000269
  836       -6.0747502339      -0.0000000207     0.500947    0.00000268
  837       -6.0747502544      -0.0000000205     0.500948    0.00000267
  838       -6.0747502748      -0.0000000204     0.500949    0.00000266
  839       -6.0747502950      -0.0000000202     0.500950    0.00000266
  840       -6.0747503150      -0.0000000201     0.500951    0.00000265
  841       -6.0747503349      -0.0000000199     0.500952    0.00000264
  842       -6.0747503547      -0.0000000197     0.500954    0.00000263
  843       -6.0747503743      -0.0000000196     0.500955    0.00000262
  844       -6.0747503937      -0.0000000194     0.500956    0.00000261
  845       -6.0747504130      -0.0000000193     0.500957    0.00000260
  846       -6.0747504321      -0.0000000191     0.500958    0.00000259
  847       -6.0747504511      -0.0000000190     0.500959    0.00000258
  848       -6.0747504700      -0.0000000188     0.500960    0.00000257
  849       -6.0747504887      -0.0000000187     0.500961    0.00000256
  850       -6.0747505072      -0.0000000185     0.500962    0.00000255
  851       -6.0747505256      -0.0000000184     0.500963    0.00000254
  852       -6.0747505439      -0.0000000183     0.500964    0.00000253
  853       -6.0747505620      -0.0000000181     0.500966    0.00000252
  854       -6.0747505799      -0.0000000180     0.500967    0.00000251
  855       -6.0747505978      -0.0000000178     0.500968    0.00000251
  856       -6.0747506155      -0.0000000177     0.500969    0.00000250
  857       -6.0747506330      -0.0000000176     0.500970    0.00000249
  858       -6.0747506504      -0.0000000174     0.500971    0.00000248
  859       -6.0747506677      -0.0000000173     0.500972    0.00000247
  860       -6.0747506849      -0.0000000171     0.500973    0.00000246
  861       -6.0747507019      -0.0000000170     0.500974    0.00000245
  862       -6.0747507188      -0.0000000169     0.500975    0.00000244
  863       -6.0747507355      -0.0000000167     0.500976    0.00000243
  864       -6.0747507521      -0.0000000166     0.500977    0.00000242
  865       -6.0747507686      -0.0000000165     0.500978    0.00000242
  866       -6.0747507850      -0.0000000164     0.500979    0.00000241
  867       -6.0747508012      -0.0000000162     0.500980    0.00000240
  868       -6.0747508173      -0.0000000161     0.500981    0.00000239
  869       -6.0747508333      -0.0000000160     0.500982    0.00000238
  870       -6.0747508491      -0.0000000159     0.500983    0.00000237
  871       -6.0747508648      -0.0000000157     0.500984    0.00000236
  872       -6.0747508804      -0.0000000156     0.500985    0.00000235
  873       -6.0747508959      -0.0000000155     0.500986    0.00000235
  874       -6.0747509113      -0.0000000154     0.500987    0.00000234
  875       -6.0747509265      -0.0000000152     0.500988    0.00000233
  876       -6.0747509417      -0.0000000151     0.500989    0.00000232
  877       -6.0747509567      -0.0000000150     0.500990    0.00000231
  878       -6.0747509715      -0.0000000149     0.500991    0.00000230
  879       -6.0747509863      -0.0000000148     0.500992    0.00000229
  880       -6.0747510010      -0.0000000147     0.500993    0.00000229
  881       -6.0747510155      -0.0000000145     0.500994    0.00000228
  882       -6.0747510299      -0.0000000144     0.500995    0.00000227
  883       -6.0747510442      -0.0000000143     0.500996    0.00000226
  884       -6.0747510585      -0.0000000142     0.500997    0.00000225
  885       -6.0747510725      -0.0000000141     0.500997    0.00000224
  886       -6.0747510865      -0.0000000140     0.500998    0.00000224
  887       -6.0747511004      -0.0000000139     0.500999    0.00000223
  888       -6.0747511142      -0.0000000138     0.501000    0.00000222
  889       -6.0747346649       0.0000164493     0.501885    0.00051781
  890       -6.0747232322       0.0000114326     0.500327    0.00134080
  891       -6.0747252713      -0.0000020390     0.500319    0.00050956
  892       -6.0747263569      -0.0000010856     0.500322    0.00035937
  893       -6.0747270425      -0.0000006856     0.500327    0.00026663
  894       -6.0747275216      -0.0000004791     0.500332    0.00021216
  895       -6.0747278845      -0.0000003629     0.500338    0.00017034
  896       -6.0747281791      -0.0000002946     0.500343    0.00013753
  897       -6.0747284321      -0.0000002530     0.500348    0.00011139
  898       -6.0747286593      -0.0000002272     0.500352    0.00009033
  899       -6.0747288699      -0.0000002106     0.500356    0.00007324
  900       -6.0747290697      -0.0000001997     0.500360    0.00005929
  901       -6.0747292619      -0.0000001923     0.500364    0.00004785
  902       -6.0747294490      -0.0000001870     0.500367    0.00003845
  903       -6.0747296321      -0.0000001831     0.500371    0.00003069
  904       -6.0747298122      -0.0000001801     0.500374    0.00002428
  905       -6.0747299899      -0.0000001777     0.500378    0.00001897
  906       -6.0747301655      -0.0000001756     0.500381    0.00001456
  907       -6.0747303394      -0.0000001738     0.500384    0.00001090
  908       -6.0747305116      -0.0000001722     0.500388    0.00000785
  909       -6.0747306823      -0.0000001707     0.500391    0.00000531
  910       -6.0747308515      -0.0000001693     0.500394    0.00000455
  911       -6.0747310195      -0.0000001679     0.500397    0.00000500
  912       -6.0747311861      -0.0000001666     0.500401    0.00000534
  913       -6.0747313514      -0.0000001653     0.500404    0.00000558
  914       -6.0747315154      -0.0000001641     0.500407    0.00000576
  915       -6.0747316782      -0.0000001628     0.500410    0.00000588
  916       -6.0747318398      -0.0000001616     0.500413    0.00000597
  917       -6.0747320002      -0.0000001604     0.500417    0.00000603
  918       -6.0747321594      -0.0000001592     0.500420    0.00000607
  919       -6.0747323174      -0.0000001580     0.500423    0.00000609
  920       -6.0747324742      -0.0000001568     0.500426    0.00000610
  921       -6.0747326299      -0.0000001557     0.500429    0.00000610
  922       -6.0747327844      -0.0000001545     0.500432    0.00000625
  923       -6.0747329378      -0.0000001534     0.500435    0.00000644
  924       -6.0747330900      -0.0000001522     0.500439    0.00000660
  925       -6.0747332411      -0.0000001511     0.500442    0.00000673
  926       -6.0747333911      -0.0000001500     0.500445    0.00000683
  927       -6.0747335399      -0.0000001489     0.500448    0.00000692
  928       -6.0747336877      -0.0000001478     0.500451    0.00000698
  929       -6.0747338344      -0.0000001467     0.500454    0.00000703
  930       -6.0747339799      -0.0000001456     0.500457    0.00000707
  931       -6.0747341244      -0.0000001445     0.500460    0.00000709
  932       -6.0747342678      -0.0000001434     0.500463    0.00000711
  933       -6.0747344102      -0.0000001423     0.500466    0.00000712
  934       -6.0747345515      -0.0000001413     0.500469    0.00000712
  935       -6.0747346917      -0.0000001402     0.500472    0.00000712
  936       -6.0747348309      -0.0000001392     0.500475    0.00000711
  937       -6.0747349690      -0.0000001382     0.500478    0.00000710
  938       -6.0747351062      -0.0000001371     0.500481    0.00000709
  939       -6.0747352423      -0.0000001361     0.500484    0.00000707
  940       -6.0747353773      -0.0000001351     0.500486    0.00000705
  941       -6.0747355114      -0.0000001341     0.500489    0.00000703
  942       -6.0747356445      -0.0000001331     0.500492    0.00000701
  943       -6.0747357766      -0.0000001321     0.500495    0.00000699
  944       -6.0747359077      -0.0000001311     0.500498    0.00000696
  945       -6.0747360378      -0.0000001301     0.500501    0.00000694
  946       -6.0747361669      -0.0000001291     0.500504    0.00000691
  947       -6.0747362951      -0.0000001282     0.500507    0.00000688
  948       -6.0747364223      -0.0000001272     0.500509    0.00000686
  949       -6.0747365485      -0.0000001263     0.500512    0.00000683
  950       -6.0747366738      -0.0000001253     0.500515    0.00000680
  951       -6.0747367982      -0.0000001244     0.500518    0.00000677
  952       -6.0747369216      -0.0000001234     0.500521    0.00000674
  953       -6.0747370441      -0.0000001225     0.500523    0.00000671
  954       -6.0747371657      -0.0000001216     0.500526    0.00000669
  955       -6.0747372864      -0.0000001207     0.500529    0.00000666
  956       -6.0747374062      -0.0000001198     0.500532    0.00000663
  957       -6.0747375251      -0.0000001189     0.500534    0.00000660
  958       -6.0747376430      -0.0000001180     0.500537    0.00000657
  959       -6.0747377601      -0.0000001171     0.500540    0.00000654
  960       -6.0747378763      -0.0000001162     0.500543    0.00000651
  961       -6.0747379917      -0.0000001153     0.500545    0.00000648
  962       -6.0747381061      -0.0000001145     0.500548    0.00000645
  963       -6.0747382197      -0.0000001136     0.500551    0.00000642
  964       -6.0747383325      -0.0000001127     0.500553    0.00000640
  965       -6.0747384444      -0.0000001119     0.500556    0.00000637
  966       -6.0747385554      -0.0000001111     0.500559    0.00000634
  967       -6.0747386656      -0.0000001102     0.500561    0.00000631
  968       -6.0747387750      -0.0000001094     0.500564    0.00000628
  969       -6.0747388836      -0.0000001086     0.500566    0.00000625
  970       -6.0747389913      -0.0000001077     0.500569    0.00000622
  971       -6.0747390982      -0.0000001069     0.500572    0.00000620
  972       -6.0747392043      -0.0000001061     0.500574    0.00000617
  973       -6.0747393096      -0.0000001053     0.500577    0.00000614
  974       -6.0747394142      -0.0000001045     0.500579    0.00000611
  975       -6.0747395179      -0.0000001037     0.500582    0.00000609
  976       -6.0747396208      -0.0000001029     0.500584    0.00000606
  977       -6.0747397230      -0.0000001022     0.500587    0.00000603
  978       -6.0747398244      -0.0000001014     0.500589    0.00000600
  979       -6.0747399250      -0.0000001006     0.500592    0.00000598
  980       -6.0747400249      -0.0000000999     0.500595    0.00000595
  981       -6.0747401240      -0.0000000991     0.500597    0.00000592
  982       -6.0747402223      -0.0000000983     0.500600    0.00000590
  983       -6.0747403199      -0.0000000976     0.500602    0.00000587
  984       -6.0747404168      -0.0000000969     0.500604    0.00000584
  985       -6.0747405129      -0.0000000961     0.500607    0.00000582
  986       -6.0747406083      -0.0000000954     0.500609    0.00000579
  987       -6.0747407030      -0.0000000947     0.500612    0.00000576
  988       -6.0747407969      -0.0000000940     0.500614    0.00000574
  989       -6.0747408902      -0.0000000932     0.500617    0.00000571
  990       -6.0747409827      -0.0000000925     0.500619    0.00000569
  991       -6.0747410745      -0.0000000918     0.500622    0.00000566
  992       -6.0747411657      -0.0000000911     0.500624    0.00000563
  993       -6.0747412561      -0.0000000904     0.500626    0.00000561
  994       -6.0747413459      -0.0000000898     0.500629    0.00000558
  995       -6.0747414349      -0.0000000891     0.500631    0.00000556
  996       -6.0747415233      -0.0000000884     0.500633    0.00000553
  997       -6.0747416110      -0.0000000877     0.500636    0.00000551
  998       -6.0747416981      -0.0000000870     0.500638    0.00000548
  999       -6.0747417845      -0.0000000864     0.500640    0.00000546
 1000       -6.0747418702      -0.0000000857     0.500643    0.00000543

Total Energy:                       -6.0747418702 H         -165.3021 eV
Extrapolated to 0:                  -6.2166853083 H         -169.1646 eV

----------------------------------------------------------------------------------
 Solving CP-REKS equation for  1 state vector...
----------------------------------------------------------------------------------
  CG solver: Constructing Y initial guess
  CG solver: Iteration    1    eps =  897.980006655153
  CG solver: Iteration    2    eps =    0.243992779602
  CG solver: Iteration    3    eps =    0.064982894346
  CG solver: Iteration    4    eps =    0.001831594412
  CG solver: Iteration    5    eps =    0.001202771930
  CG solver: Iteration    6    eps =    0.000944743343
  CG solver: Iteration    7    eps =    0.011033498549
  CG solver: Iteration    8    eps =    0.005160937566
  CG solver: Iteration    9    eps =    0.000665695014
  CG solver: Iteration   10    eps =    0.000035311797
  CG solver: Iteration   11    eps =    0.000003306545
  CG solver: Iteration   12    eps =    0.000005147601
  CG solver: Iteration   13    eps =    0.000002540459
  CG solver: Iteration   14    eps =    0.000000131668
  CG solver: Iteration   15    eps =    0.000000006005
  Convergence reached in CG solver after   15 iterations
  CG solver: Calculating converged R, Z, Q2 matrix
----------------------------------------------------------------------------------

----------------------------------------------------------------------------------
 Solving CP-REKS equation for SI between  1 and  2 state vectors...
----------------------------------------------------------------------------------
  CG solver: Constructing Y initial guess
  CG solver: Iteration    1    eps =    0.598655787474
  CG solver: Iteration    2    eps =    0.000656156202
  CG solver: Iteration    3    eps =    0.000009454697
  CG solver: Iteration    4    eps =    0.000008092736
  CG solver: Iteration    5    eps =    0.000062729539
  CG solver: Iteration    6    eps =    0.000076263211
  CG solver: Iteration    7    eps =    0.000015593404
  CG solver: Iteration    8    eps =    0.000001544220
  CG solver: Iteration    9    eps =    0.000000085563
  CG solver: Iteration   10    eps =    0.000000010048
  CG solver: Iteration   11    eps =    0.000000000420
  Convergence reached in CG solver after   11 iterations
  CG solver: Calculating converged R, Z, Q2 matrix
----------------------------------------------------------------------------------

--------------------------------------------------
 Gradient Information
--------------------------------------------------
           1 st state (SSR)
     0.00000000     0.00000000     0.00000000
     0.00000000     0.00000000     0.00000000
     0.00000000     0.00000000     0.00000000
     0.00000000     0.00000000     0.00000000
     0.00000000     0.00000000     0.00000000
     0.00000000     0.00000000     0.00000000

           2 st state (SSR)
     0.00000000     0.00000000     0.00000000
     0.00000000     0.00000000     0.00000000
     0.00000000     0.00000000     0.00000000
     0.00000000     0.00000000     0.00000000
     0.00000000     0.00000000     0.00000000
     0.00000000     0.00000000     0.00000000
--------------------------------------------------
 Coupling Information
--------------------------------------------------
 between  1 and  2 states
--------------------------------------------------
 g vector - difference gradient
     0.39636022     0.10705000    -0.05371034
     0.09431334    -0.32464926     0.18062682
    -0.22979813    -0.00023821     0.06436454
    -0.07541296     0.29755977    -0.10165602
    -0.07653820    -0.23544147     0.16244167
    -0.10892427     0.15571917    -0.25206667

 h vector - derivative coupling
    -0.00003567     0.00004955     0.00004464
     0.00005963     0.00003332    -0.00006247
    -0.00002109    -0.00001791     0.00001037
    -0.00004413    -0.00006862     0.00001640
     0.00002607    -0.00000107    -0.00001671
     0.00001519     0.00000472     0.00000777

 G vector - GDV
     0.00000000     0.00000000     0.00000000
     0.00000000     0.00000000     0.00000000
     0.00000000     0.00000000     0.00000000
     0.00000000     0.00000000     0.00000000
     0.00000000     0.00000000     0.00000000
     0.00000000     0.00000000     0.00000000

 H vector - DCV - non-adiabatic coupling
     0.00000000     0.00000000     0.00000000
     0.00000000     0.00000000     0.00000000
     0.00000000     0.00000000     0.00000000
     0.00000000     0.00000000     0.00000000
     0.00000000     0.00000000     0.00000000
     0.00000000     0.00000000     0.00000000
--------------------------------------------------

WARNING!
-> SCC is NOT converged, maximal SCC iterations exceeded

--------------------------------------------------------------------------------
DFTB+ running times                          cpu [s]             wall clock [s]
--------------------------------------------------------------------------------
SCC                                    +     0.38  ( 96.6%)      0.38  ( 95.9%)
      Sparse to dense                        0.02  (  4.5%)      0.02  (  4.8%)
      Dense to sparse                        0.06  ( 15.3%)      0.05  ( 13.5%)
      Range separated Hamiltonian            0.02  (  6.4%)      0.02  (  5.8%)
  Density matrix creation                    0.05  ( 11.8%)      0.04  ( 11.2%)
  Force calculation                          0.01  (  3.1%)      0.01  (  3.3%)
--------------------------------------------------------------------------------
Missing                                +     0.01  (  3.4%)      0.02  (  4.1%)
Total                                  =     0.39  (100.0%)      0.39  (100.0%)
--------------------------------------------------------------------------------
