|===============================================================================
|
|  DFTB+ release 20.1
|
|  Copyright (C) 2006 - 2020  DFTB+ developers group
|
|===============================================================================
|
|  When publishing results obtained with DFTB+, please cite the following
|  reference:
|
|  * DFTB+, a software package for efficient approximate density functional
|    theory based atomistic simulations, J. Chem. Phys. 152, 124101 (2020).
|    [doi: 10.1063/1.5143190]
|
|  You should also cite additional publications crediting the parametrization
|  data you use. Please consult the documentation of the SK-files for the
|  references.
|
|===============================================================================

Reading input file 'dftb_in.hsd'
Parser version: 8

--------------------------------------------------------------------------------
Reading SK-files:
Done.


Processed input in HSD format written to 'dftb_pin.hsd'

Starting initialization...
--------------------------------------------------------------------------------
OpenMP threads:              1
Chosen random seed:          509429850
Mode:                        Static calculation
Self consistent charges:     Yes
SCC-tolerance:                 0.100000E-05
Max. scc iterations:                   1000
Shell resolved Hubbard:      No
Spin polarisation:           No
Nr. of up electrons:             6.000000
Nr. of down electrons:           6.000000
Periodic boundaries:         No
Electronic solver:           Relatively robust
Maximal SCC-cycles:                    1000
Initial charges:             Set automatically (system chrg:   0.100E+01)
Included shells:             C:  s, p
                             N:  s, p
                             H:  s
Spin coupling constants:     C   1(s)-1(s):  -0.455900E-01
                             C   1(s)-2(p):  -0.293000E-01
                             C   2(p)-1(s):  -0.293000E-01
                             C   2(p)-2(p):  -0.275500E-01
                             N   1(s)-1(s):  -0.468700E-01
                             N   1(s)-2(p):  -0.317000E-01
                             N   2(p)-1(s):  -0.317000E-01
                             N   2(p)-2(p):  -0.307200E-01
                             H   1(s)-1(s):  -0.792500E-01
Range separated hybrid:      Yes
  Screening parameter omega:   0.300000E+00
  Range separated algorithm:   MatrixBased
Extra options:
                             Mulliken analysis
                             Force calculation
Force type                   original
                             Eigenvector printing


REKS Calcuation:             Yes
SSR(2,2) Calcuation:         Yes
Energy Functional:           (PPS+OSS)/2
Number of Core Orbitals:                  5
Number of Active Orbitals:                2
Number of Basis:                         12
Number of States:                         2
State-Averaging Weight:          0.500000
                                 0.500000
State of Interest:                        1
Initial Guess:               Diagonalize H0 matrix
Newton-Raphson for FON opt:  Yes
NR max. Iterations:                      50
Level Shifting:              Yes
Shift Value:                     0.300000
W Scale Factor:              C  =    3.000000
                             N  =    3.000000
                             H  =    3.000000
Transition Dipole:           No
Gradient of Microstate:      No
CP-REKS Solver:              Preconditioned Conjugate-Gradient
CG max. Iterations:                     100
CG Tolerance:                  0.100000E-07
Memory for A and Hxc:        Direct Updating Without Saving
Non-Adiabatic Coupling:      Yes

--------------------------------------------------------------------------------

***  Geometry step: 0

  iSCC       reks energy        Diff energy         x_a       SCC error   
    1       -6.2628832838       0.0000000000     0.998631    1.17968209
    2       -6.2766451958      -0.0137619120     0.999494    0.11128334
    3       -6.2805340660      -0.0038888702     0.999734    0.05254323
    4       -6.2822124095      -0.0016783435     0.999828    0.02689758
    5       -6.2830940182      -0.0008816087     0.999871    0.01466506
    6       -6.2836420601      -0.0005480419     0.999893    0.00817243
    7       -6.2840251957      -0.0003831356     0.999906    0.00602024
    8       -6.2843104382      -0.0002852425     0.999914    0.00554042
    9       -6.2845287384      -0.0002183002     0.999919    0.00498584
   10       -6.2846973078      -0.0001685694     0.999922    0.00442376
   11       -6.2848274561      -0.0001301483     0.999925    0.00388688
   12       -6.2849275033      -0.0001000472     0.999927    0.00339072
   13       -6.2850039447      -0.0000764414     0.999928    0.00294176
   14       -6.2850619695      -0.0000580247     0.999929    0.00255938
   15       -6.2851057360      -0.0000437665     0.999930    0.00229608
   16       -6.2851385556      -0.0000328196     0.999930    0.00204416
   17       -6.2851630383      -0.0000244826     0.999931    0.00180825
   18       -6.2851812184      -0.0000181801     0.999931    0.00159095
   19       -6.2851946650      -0.0000134467     0.999931    0.00139334
   20       -6.2852045769      -0.0000099118     0.999931    0.00121550
   21       -6.2852118619      -0.0000072850     0.999932    0.00105679
   22       -6.2852172029      -0.0000053411     0.999932    0.00091613
   23       -6.2852211105      -0.0000039075     0.999932    0.00079219
   24       -6.2852239641      -0.0000028536     0.999932    0.00068352
   25       -6.2852260449      -0.0000020808     0.999932    0.00058864
   26       -6.2852275601      -0.0000015152     0.999932    0.00050609
   27       -6.2852286622      -0.0000011022     0.999932    0.00043449
   28       -6.2852294632      -0.0000008009     0.999932    0.00037255
   29       -6.2852300447      -0.0000005815     0.999932    0.00031909
   30       -6.2852304667      -0.0000004220     0.999932    0.00027303
   31       -6.2852307727      -0.0000003060     0.999932    0.00023343
   32       -6.2852309944      -0.0000002218     0.999932    0.00019942
   33       -6.2852311551      -0.0000001607     0.999932    0.00017026
   34       -6.2852312714      -0.0000001163     0.999932    0.00014528
   35       -6.2852313557      -0.0000000842     0.999932    0.00012391
   36       -6.2852314166      -0.0000000610     0.999932    0.00010563
   37       -6.2852314607      -0.0000000441     0.999932    0.00009002
   38       -6.2852314926      -0.0000000319     0.999932    0.00007669
   39       -6.2852315157      -0.0000000231     0.999932    0.00006531
   40       -6.2852315324      -0.0000000167     0.999932    0.00005561
   41       -6.2852315445      -0.0000000121     0.999932    0.00004734
   42       -6.2852315532      -0.0000000087     0.999932    0.00004029
   43       -6.2852315595      -0.0000000063     0.999932    0.00003428
   44       -6.2852315641      -0.0000000046     0.999932    0.00002917
   45       -6.2852315674      -0.0000000033     0.999932    0.00002482
   46       -6.2852315698      -0.0000000024     0.999932    0.00002111
   47       -6.2852315715      -0.0000000017     0.999932    0.00001795
   48       -6.2852315727      -0.0000000012     0.999932    0.00001527
   49       -6.2852315736      -0.0000000009     0.999932    0.00001299
   50       -6.2852315743      -0.0000000006     0.999932    0.00001104
   51       -6.2852315747      -0.0000000005     0.999932    0.00000939
   52       -6.2852315751      -0.0000000003     0.999932    0.00000798
   53       -6.2852315753      -0.0000000002     0.999932    0.00000679
   54       -6.2852315755      -0.0000000002     0.999932    0.00000577
   55       -6.2852315756      -0.0000000001     0.999932    0.00000491
   56       -6.2852315757      -0.0000000001     0.999932    0.00000417
   57       -6.2852315758      -0.0000000001     0.999932    0.00000355
   58       -6.2852315758      -0.0000000000     0.999932    0.00000302
   59       -6.2852315759      -0.0000000000     0.999932    0.00000256
   60       -6.2852315759      -0.0000000000     0.999932    0.00000218
   61       -6.2852315759      -0.0000000000     0.999932    0.00000185
   62       -6.2852315759      -0.0000000000     0.999932    0.00000157
   63       -6.2852315759      -0.0000000000     0.999932    0.00000134
   64       -6.2852315759      -0.0000000000     0.999932    0.00000114
   65       -6.2852315759      -0.0000000000     0.999932    0.00000097
  
--------------------------------------------------
 Final SA-REKS(2,2) energy:      -6.28523158
  
 State     Energy      FON(1)    FON(2)   Spin
  PPS   -6.40872337   1.999863  0.000137  0.00
  OSS   -6.16173979   1.000000  1.000000  0.00
 Trip   -6.24406713   1.000000  1.000000  1.00
--------------------------------------------------

 Lagrangian Wab:  -0.00780866 -0.00780834

--------------------------------------------------
 SSR: 2SI-2SA-REKS(2,2) Hamiltonian matrix
               PPS           OSS
   PPS    -6.40872337   -0.01095147
   OSS    -0.01095147   -6.16173979
--------------------------------------------------

----------------------------------------------------------------
 SSR: 2SI-2SA-REKS(2,2) states
                    E_n       C_{PPS}    C_{OSS}
 SSR state  1   -6.40920801  -0.999022  -0.044211
 SSR state  2   -6.16125514   0.044211  -0.999022
----------------------------------------------------------------

 unrelaxed SSR FONs for S0:  1.997909  0.002091

Total Energy:                       -6.4092080134 H         -174.4034 eV
Extrapolated to 0:                  -6.4092080134 H         -174.4034 eV

----------------------------------------------------------------------------------
 Solving CP-REKS equation for  1 state vector...
----------------------------------------------------------------------------------
  CG solver: Constructing Y initial guess
  CG solver: Iteration    1    eps =    0.000154019335
  CG solver: Iteration    2    eps =    0.000068513265
  CG solver: Iteration    3    eps =    0.000021632908
  CG solver: Iteration    4    eps =    0.000001168899
  CG solver: Iteration    5    eps =    0.000000017970
  CG solver: Iteration    6    eps =    0.000000007165
  Convergence reached in CG solver after    6 iterations
  CG solver: Calculating converged R, Z, Q2 matrix
----------------------------------------------------------------------------------

----------------------------------------------------------------------------------
 Solving CP-REKS equation for SI between  1 and  2 state vectors...
----------------------------------------------------------------------------------
  CG solver: Constructing Y initial guess
  CG solver: Iteration    1    eps =    0.003953877723
  CG solver: Iteration    2    eps =    0.006401441167
  CG solver: Iteration    3    eps =    0.000738414704
  CG solver: Iteration    4    eps =    0.000008509395
  CG solver: Iteration    5    eps =    0.000001199599
  CG solver: Iteration    6    eps =    0.000000021887
  CG solver: Iteration    7    eps =    0.000000000628
  Convergence reached in CG solver after    7 iterations
  CG solver: Calculating converged R, Z, Q2 matrix
----------------------------------------------------------------------------------

--------------------------------------------------
 Gradient Information
--------------------------------------------------
           1 st state (SSR)
     0.00061287     0.00442589    -0.01763893
     0.00115751     0.00083422     0.01684629
     0.01297449    -0.00412536     0.00292828
     0.01443924    -0.00505536    -0.00838503
    -0.01522287     0.00347885    -0.00207864
    -0.01396123     0.00044176     0.00832803

           2 st state (SSR)
    -0.00009214    -0.00730345     0.08989342
    -0.00078248     0.00290995    -0.10533897
    -0.01493462    -0.00816984     0.01760057
    -0.01092255     0.00550989    -0.01559533
     0.01285913    -0.00129991    -0.00998989
     0.01387266     0.00835337     0.02343019
--------------------------------------------------
 Coupling Information
--------------------------------------------------
 between  1 and  2 states
--------------------------------------------------
 g vector - difference gradient
     0.00040093     0.00580935    -0.05684013
     0.00106434    -0.00102351     0.06363890
     0.01530044     0.00158117    -0.00709288
     0.01429799    -0.00523066     0.00374472
    -0.01566518     0.00226343     0.00396739
    -0.01539851    -0.00339978    -0.00741800

 h vector - derivative coupling
    -0.00053040     0.00088335     0.03228336
    -0.00102100    -0.00020784    -0.02600884
    -0.01455905     0.00506314    -0.00306785
    -0.01767360    -0.00081971    -0.00141423
     0.01769335     0.00152600     0.00004239
     0.01609070    -0.00644493    -0.00183483

 G vector - GDV
     0.00035251     0.00586467    -0.05376617
     0.00096999    -0.00103787     0.06109263
     0.01395456     0.00202224    -0.00733615
     0.01268089    -0.00528263     0.00360515
    -0.01404100     0.00238938     0.00395562
    -0.01391695    -0.00395580    -0.00755108

 H vector - DCV - non-adiabatic coupling
    -0.00227359     0.00147900     0.14994034
    -0.00448079    -0.00047031    -0.12715607
    -0.06393836     0.01977663    -0.00979746
    -0.07609320    -0.00142953    -0.00701543
     0.07665962     0.00532396    -0.00124312
     0.07012632    -0.02467976    -0.00472825
--------------------------------------------------


--------------------------------------------------------------------------------
DFTB+ running times                          cpu [s]             wall clock [s]
--------------------------------------------------------------------------------
SCC                                    +     0.03  ( 72.3%)      0.03  ( 69.6%)
Post-SCC processing                    +     0.01  ( 24.2%)      0.01  ( 23.9%)
  Force calculation                          0.01  ( 23.7%)      0.01  ( 21.7%)
--------------------------------------------------------------------------------
Missing                                +     0.00  (  3.4%)      0.00  (  6.5%)
Total                                  =     0.04  (100.0%)      0.05  (100.0%)
--------------------------------------------------------------------------------
