|===============================================================================
|
|  DFTB+ release 20.1
|
|  Copyright (C) 2006 - 2020  DFTB+ developers group
|
|===============================================================================
|
|  When publishing results obtained with DFTB+, please cite the following
|  reference:
|
|  * DFTB+, a software package for efficient approximate density functional
|    theory based atomistic simulations, J. Chem. Phys. 152, 124101 (2020).
|    [doi: 10.1063/1.5143190]
|
|  You should also cite additional publications crediting the parametrization
|  data you use. Please consult the documentation of the SK-files for the
|  references.
|
|===============================================================================

Reading input file 'dftb_in.hsd'
Parser version: 8

--------------------------------------------------------------------------------
Reading SK-files:
Done.


Processed input in HSD format written to 'dftb_pin.hsd'

Starting initialization...
--------------------------------------------------------------------------------
OpenMP threads:              1
Chosen random seed:          510251274
Mode:                        Static calculation
Self consistent charges:     Yes
SCC-tolerance:                 0.100000E-05
Max. scc iterations:                   1000
Shell resolved Hubbard:      No
Spin polarisation:           No
Nr. of up electrons:             6.000000
Nr. of down electrons:           6.000000
Periodic boundaries:         No
Electronic solver:           Relatively robust
Maximal SCC-cycles:                    1000
Initial charges:             Set automatically (system chrg:   0.100E+01)
Included shells:             C:  s, p
                             N:  s, p
                             H:  s
Spin coupling constants:     C   1(s)-1(s):  -0.455900E-01
                             C   1(s)-2(p):  -0.293000E-01
                             C   2(p)-1(s):  -0.293000E-01
                             C   2(p)-2(p):  -0.275500E-01
                             N   1(s)-1(s):  -0.468700E-01
                             N   1(s)-2(p):  -0.317000E-01
                             N   2(p)-1(s):  -0.317000E-01
                             N   2(p)-2(p):  -0.307200E-01
                             H   1(s)-1(s):  -0.792500E-01
Range separated hybrid:      Yes
  Screening parameter omega:   0.300000E+00
  Range separated algorithm:   MatrixBased
Extra options:
                             Mulliken analysis
                             Force calculation
Force type                   original
                             Eigenvector printing


REKS Calcuation:             Yes
SSR(2,2) Calcuation:         Yes
Energy Functional:           (PPS+OSS)/2
Number of Core Orbitals:                  5
Number of Active Orbitals:                2
Number of Basis:                         12
Number of States:                         2
State-Averaging Weight:          0.500000
                                 0.500000
State of Interest:                        1
Initial Guess:               Diagonalize H0 matrix
Newton-Raphson for FON opt:  Yes
NR max. Iterations:                      50
Level Shifting:              Yes
Shift Value:                     0.300000
W Scale Factor:              C  =    3.000000
                             N  =    3.000000
                             H  =    3.000000
Transition Dipole:           No
Gradient of Microstate:      No
CP-REKS Solver:              Preconditioned Conjugate-Gradient
CG max. Iterations:                     100
CG Tolerance:                  0.100000E-07
Memory for A and Hxc:        Direct Updating Without Saving
Non-Adiabatic Coupling:      Yes

--------------------------------------------------------------------------------

***  Geometry step: 0

  iSCC       reks energy        Diff energy         x_a       SCC error   
    1       -6.2616590432       0.0000000000     0.999104    1.18189523
    2       -6.2750143816      -0.0133553384     0.999647    0.10555343
    3       -6.2789396278      -0.0039252462     0.999807    0.04785419
    4       -6.2807644636      -0.0018248358     0.999873    0.02391701
    5       -6.2817843932      -0.0010199295     0.999905    0.01256383
    6       -6.2824264302      -0.0006420370     0.999922    0.00675366
    7       -6.2828575572      -0.0004311270     0.999932    0.00588597
    8       -6.2831549544      -0.0002973972     0.999938    0.00507620
    9       -6.2833616399      -0.0002066856     0.999942    0.00437191
   10       -6.2835051619      -0.0001435219     0.999945    0.00370664
   11       -6.2836044568      -0.0000992950     0.999947    0.00320067
   12       -6.2836728717      -0.0000684149     0.999948    0.00281616
   13       -6.2837198412      -0.0000469695     0.999949    0.00245111
   14       -6.2837519976      -0.0000321565     0.999950    0.00211503
   15       -6.2837739685      -0.0000219709     0.999950    0.00181236
   16       -6.2837889596      -0.0000149911     0.999951    0.00154419
   17       -6.2837991794      -0.0000102198     0.999951    0.00130952
   18       -6.2838061428      -0.0000069634     0.999951    0.00110617
   19       -6.2838108860      -0.0000047432     0.999951    0.00093130
   20       -6.2838141164      -0.0000032304     0.999951    0.00078188
   21       -6.2838163163      -0.0000021999     0.999951    0.00065486
   22       -6.2838178144      -0.0000014981     0.999951    0.00054735
   23       -6.2838188346      -0.0000010202     0.999951    0.00045668
   24       -6.2838195292      -0.0000006947     0.999951    0.00038045
   25       -6.2838200023      -0.0000004730     0.999951    0.00031653
   26       -6.2838203244      -0.0000003221     0.999951    0.00026305
   27       -6.2838205437      -0.0000002193     0.999951    0.00021840
   28       -6.2838206931      -0.0000001493     0.999951    0.00018116
   29       -6.2838207947      -0.0000001017     0.999951    0.00015017
   30       -6.2838208639      -0.0000000692     0.999951    0.00012440
   31       -6.2838209111      -0.0000000471     0.999951    0.00010299
   32       -6.2838209431      -0.0000000321     0.999951    0.00008523
   33       -6.2838209650      -0.0000000218     0.999951    0.00007050
   34       -6.2838209798      -0.0000000149     0.999951    0.00005829
   35       -6.2838209900      -0.0000000101     0.999951    0.00004819
   36       -6.2838209968      -0.0000000069     0.999951    0.00003982
   37       -6.2838210015      -0.0000000047     0.999951    0.00003290
   38       -6.2838210047      -0.0000000032     0.999951    0.00002717
   39       -6.2838210069      -0.0000000022     0.999951    0.00002244
   40       -6.2838210084      -0.0000000015     0.999951    0.00001853
   41       -6.2838210094      -0.0000000010     0.999951    0.00001530
   42       -6.2838210101      -0.0000000007     0.999951    0.00001263
   43       -6.2838210105      -0.0000000005     0.999951    0.00001043
   44       -6.2838210108      -0.0000000003     0.999951    0.00000861
   45       -6.2838210110      -0.0000000002     0.999951    0.00000710
   46       -6.2838210112      -0.0000000001     0.999951    0.00000586
   47       -6.2838210113      -0.0000000001     0.999951    0.00000484
   48       -6.2838210114      -0.0000000001     0.999951    0.00000399
   49       -6.2838210114      -0.0000000000     0.999951    0.00000329
   50       -6.2838210114      -0.0000000000     0.999951    0.00000272
   51       -6.2838210115      -0.0000000000     0.999951    0.00000224
   52       -6.2838210115      -0.0000000000     0.999951    0.00000185
   53       -6.2838210115      -0.0000000000     0.999951    0.00000153
   54       -6.2838210115      -0.0000000000     0.999951    0.00000126
   55       -6.2838210115      -0.0000000000     0.999951    0.00000104
   56       -6.2838210115      -0.0000000000     0.999951    0.00000086
  
--------------------------------------------------
 Final SA-REKS(2,2) energy:      -6.28382101
  
 State     Energy      FON(1)    FON(2)   Spin
  PPS   -6.41023300   1.999902  0.000098  0.00
  OSS   -6.15740902   1.000000  1.000000  0.00
 Trip   -6.23837770   1.000000  1.000000  1.00
--------------------------------------------------

 Lagrangian Wab:  -0.00618188 -0.00618167

--------------------------------------------------
 SSR: 2SI-2SA-REKS(2,2) Hamiltonian matrix
               PPS           OSS
   PPS    -6.41023300   -0.00868120
   OSS    -0.00868120   -6.15740902
--------------------------------------------------

----------------------------------------------------------------
 SSR: 2SI-2SA-REKS(2,2) states
                    E_n       C_{PPS}    C_{OSS}
 SSR state  1   -6.41053073  -0.999412  -0.034276
 SSR state  2   -6.15711129   0.034276  -0.999412
----------------------------------------------------------------

 unrelaxed SSR FONs for S0:  1.998728  0.001272

Total Energy:                       -6.4105307343 H         -174.4394 eV
Extrapolated to 0:                  -6.4105307343 H         -174.4394 eV

----------------------------------------------------------------------------------
 Solving CP-REKS equation for  1 state vector...
----------------------------------------------------------------------------------
  CG solver: Constructing Y initial guess
  CG solver: Iteration    1    eps =    0.000112759239
  CG solver: Iteration    2    eps =    0.000062239410
  CG solver: Iteration    3    eps =    0.000003741646
  CG solver: Iteration    4    eps =    0.000000741155
  CG solver: Iteration    5    eps =    0.000000012160
  CG solver: Iteration    6    eps =    0.000000004045
  Convergence reached in CG solver after    6 iterations
  CG solver: Calculating converged R, Z, Q2 matrix
----------------------------------------------------------------------------------

----------------------------------------------------------------------------------
 Solving CP-REKS equation for SI between  1 and  2 state vectors...
----------------------------------------------------------------------------------
  CG solver: Constructing Y initial guess
  CG solver: Iteration    1    eps =    0.002311612375
  CG solver: Iteration    2    eps =    0.002978944658
  CG solver: Iteration    3    eps =    0.000470526153
  CG solver: Iteration    4    eps =    0.000005422591
  CG solver: Iteration    5    eps =    0.000000734266
  CG solver: Iteration    6    eps =    0.000000015315
  CG solver: Iteration    7    eps =    0.000000001034
  Convergence reached in CG solver after    7 iterations
  CG solver: Calculating converged R, Z, Q2 matrix
----------------------------------------------------------------------------------

--------------------------------------------------
 Gradient Information
--------------------------------------------------
           1 st state (SSR)
     0.00346072    -0.00989898     0.01401074
    -0.00688291    -0.00048534    -0.00902760
     0.01283332    -0.00170972    -0.00213428
     0.01576841     0.00919241    -0.00333791
    -0.01108894    -0.00162865    -0.00628371
    -0.01409059     0.00453027     0.00677274

           2 st state (SSR)
    -0.00555359    -0.00448743     0.12195846
     0.00779949     0.00086405    -0.13373453
    -0.01077731     0.00307126     0.01480819
    -0.01103529     0.00295588    -0.01101929
     0.00862972     0.00613180    -0.01367390
     0.01093700    -0.00853557     0.02166106
--------------------------------------------------
 Coupling Information
--------------------------------------------------
 between  1 and  2 states
--------------------------------------------------
 g vector - difference gradient
     0.00464214    -0.00258799    -0.05513806
    -0.00748239    -0.00067054     0.06333650
     0.01259999    -0.00225774    -0.00837776
     0.01437970     0.00299295     0.00389275
    -0.01073013    -0.00383693     0.00374354
    -0.01340930     0.00636026    -0.00745696

 h vector - derivative coupling
    -0.00181097    -0.00180794     0.01510147
     0.00180419    -0.00008360    -0.01217600
    -0.01116675    -0.00201502    -0.00165173
    -0.01377947     0.00193174    -0.00062627
     0.01234216    -0.00076351    -0.00057862
     0.01261084     0.00273832    -0.00006885

 G vector - GDV
     0.00450716    -0.00270577    -0.05397386
    -0.00734120    -0.00067470     0.06235346
     0.01180532    -0.00239049    -0.00847123
     0.01340185     0.00311826     0.00384069
    -0.00985933    -0.00388022     0.00369510
    -0.01251380     0.00653292    -0.00744416

 H vector - DCV - non-adiabatic coupling
    -0.00838435    -0.00641773     0.07435748
     0.00912554    -0.00014784    -0.06505710
    -0.04736721    -0.00732226    -0.00423750
    -0.05813397     0.00679564    -0.00351788
     0.05148898    -0.00196842    -0.00328996
     0.05327100     0.00906060     0.00174495
--------------------------------------------------


--------------------------------------------------------------------------------
DFTB+ running times                          cpu [s]             wall clock [s]
--------------------------------------------------------------------------------
SCC                                    +     0.02  ( 65.2%)      0.02  ( 60.0%)
--------------------------------------------------------------------------------
Missing                                +     0.01  ( 34.8%)      0.01  ( 40.0%)
Total                                  =     0.03  (100.0%)      0.03  (100.0%)
--------------------------------------------------------------------------------
