|===============================================================================
|
|  DFTB+ release 20.1
|
|  Copyright (C) 2006 - 2020  DFTB+ developers group
|
|===============================================================================
|
|  When publishing results obtained with DFTB+, please cite the following
|  reference:
|
|  * DFTB+, a software package for efficient approximate density functional
|    theory based atomistic simulations, J. Chem. Phys. 152, 124101 (2020).
|    [doi: 10.1063/1.5143190]
|
|  You should also cite additional publications crediting the parametrization
|  data you use. Please consult the documentation of the SK-files for the
|  references.
|
|===============================================================================

Reading input file 'dftb_in.hsd'
Parser version: 8

--------------------------------------------------------------------------------
Reading SK-files:
Done.


Processed input in HSD format written to 'dftb_pin.hsd'

Starting initialization...
--------------------------------------------------------------------------------
OpenMP threads:              1
Chosen random seed:          507935559
Mode:                        Static calculation
Self consistent charges:     Yes
SCC-tolerance:                 0.100000E-05
Max. scc iterations:                   1000
Shell resolved Hubbard:      No
Spin polarisation:           No
Nr. of up electrons:             6.000000
Nr. of down electrons:           6.000000
Periodic boundaries:         No
Electronic solver:           Relatively robust
Maximal SCC-cycles:                    1000
Initial charges:             Set automatically (system chrg:   0.100E+01)
Included shells:             C:  s, p
                             N:  s, p
                             H:  s
Spin coupling constants:     C   1(s)-1(s):  -0.455900E-01
                             C   1(s)-2(p):  -0.293000E-01
                             C   2(p)-1(s):  -0.293000E-01
                             C   2(p)-2(p):  -0.275500E-01
                             N   1(s)-1(s):  -0.468700E-01
                             N   1(s)-2(p):  -0.317000E-01
                             N   2(p)-1(s):  -0.317000E-01
                             N   2(p)-2(p):  -0.307200E-01
                             H   1(s)-1(s):  -0.792500E-01
Range separated hybrid:      Yes
  Screening parameter omega:   0.300000E+00
  Range separated algorithm:   MatrixBased
Extra options:
                             Mulliken analysis
                             Force calculation
Force type                   original
                             Eigenvector printing


REKS Calcuation:             Yes
SSR(2,2) Calcuation:         Yes
Energy Functional:           (PPS+OSS)/2
Number of Core Orbitals:                  5
Number of Active Orbitals:                2
Number of Basis:                         12
Number of States:                         2
State-Averaging Weight:          0.500000
                                 0.500000
State of Interest:                        1
Initial Guess:               Diagonalize H0 matrix
Newton-Raphson for FON opt:  Yes
NR max. Iterations:                      50
Level Shifting:              Yes
Shift Value:                     0.300000
W Scale Factor:              C  =    3.000000
                             N  =    3.000000
                             H  =    3.000000
Transition Dipole:           No
Gradient of Microstate:      No
CP-REKS Solver:              Preconditioned Conjugate-Gradient
CG max. Iterations:                     100
CG Tolerance:                  0.100000E-07
Memory for A and Hxc:        Direct Updating Without Saving
Non-Adiabatic Coupling:      Yes

--------------------------------------------------------------------------------

***  Geometry step: 0

  iSCC       reks energy        Diff energy         x_a       SCC error   
    1       -6.2618263511       0.0000000000     0.998950    1.17863680
    2       -6.2754560581      -0.0136297070     0.999598    0.10827800
    3       -6.2794408284      -0.0039847703     0.999784    0.05019956
    4       -6.2812781513      -0.0018373229     0.999859    0.02538395
    5       -6.2823098616      -0.0010317103     0.999895    0.01355058
    6       -6.2829739785      -0.0006641169     0.999914    0.00721466
    7       -6.2834361612      -0.0004621827     0.999925    0.00647064
    8       -6.2837688558      -0.0003326946     0.999932    0.00566329
    9       -6.2840106750      -0.0002418192     0.999936    0.00487182
   10       -6.2841862189      -0.0001755439     0.999940    0.00417265
   11       -6.2843129460      -0.0001267271     0.999942    0.00377766
   12       -6.2844038210      -0.0000908750     0.999943    0.00337043
   13       -6.2844685680      -0.0000647470     0.999945    0.00297241
   14       -6.2845144397      -0.0000458718     0.999945    0.00259709
   15       -6.2845467870      -0.0000323472     0.999946    0.00225210
   16       -6.2845695113      -0.0000227243     0.999946    0.00194088
   17       -6.2845854279      -0.0000159166     0.999947    0.00166412
   18       -6.2845965504      -0.0000111224     0.999947    0.00142073
   19       -6.2846043086      -0.0000077582     0.999947    0.00120857
   20       -6.2846097125      -0.0000054039     0.999947    0.00102495
   21       -6.2846134724      -0.0000037599     0.999947    0.00086697
   22       -6.2846160862      -0.0000026137     0.999947    0.00073171
   23       -6.2846179019      -0.0000018157     0.999947    0.00061636
   24       -6.2846191624      -0.0000012606     0.999947    0.00051833
   25       -6.2846200372      -0.0000008748     0.999947    0.00043528
   26       -6.2846206440      -0.0000006068     0.999947    0.00036507
   27       -6.2846210647      -0.0000004208     0.999947    0.00030586
   28       -6.2846213564      -0.0000002917     0.999947    0.00025602
   29       -6.2846215585      -0.0000002022     0.999947    0.00021412
   30       -6.2846216986      -0.0000001401     0.999947    0.00017896
   31       -6.2846217957      -0.0000000970     0.999947    0.00014948
   32       -6.2846218629      -0.0000000672     0.999947    0.00012478
   33       -6.2846219094      -0.0000000466     0.999947    0.00010412
   34       -6.2846219417      -0.0000000322     0.999947    0.00008685
   35       -6.2846219640      -0.0000000223     0.999947    0.00007241
   36       -6.2846219794      -0.0000000155     0.999947    0.00006036
   37       -6.2846219901      -0.0000000107     0.999947    0.00005030
   38       -6.2846219976      -0.0000000074     0.999947    0.00004191
   39       -6.2846220027      -0.0000000051     0.999947    0.00003491
   40       -6.2846220062      -0.0000000035     0.999947    0.00002907
   41       -6.2846220087      -0.0000000025     0.999947    0.00002421
   42       -6.2846220104      -0.0000000017     0.999947    0.00002015
   43       -6.2846220116      -0.0000000012     0.999947    0.00001678
   44       -6.2846220124      -0.0000000008     0.999947    0.00001397
   45       -6.2846220129      -0.0000000006     0.999947    0.00001163
   46       -6.2846220133      -0.0000000004     0.999947    0.00000968
   47       -6.2846220136      -0.0000000003     0.999947    0.00000805
   48       -6.2846220138      -0.0000000002     0.999947    0.00000670
   49       -6.2846220139      -0.0000000001     0.999947    0.00000558
   50       -6.2846220140      -0.0000000001     0.999947    0.00000464
   51       -6.2846220141      -0.0000000001     0.999947    0.00000386
   52       -6.2846220141      -0.0000000000     0.999947    0.00000321
   53       -6.2846220141      -0.0000000000     0.999947    0.00000267
   54       -6.2846220142      -0.0000000000     0.999947    0.00000222
   55       -6.2846220142      -0.0000000000     0.999947    0.00000185
   56       -6.2846220142      -0.0000000000     0.999947    0.00000154
   57       -6.2846220142      -0.0000000000     0.999947    0.00000128
   58       -6.2846220142      -0.0000000000     0.999947    0.00000107
   59       -6.2846220142      -0.0000000000     0.999947    0.00000089
  
--------------------------------------------------
 Final SA-REKS(2,2) energy:      -6.28462201
  
 State     Energy      FON(1)    FON(2)   Spin
  PPS   -6.41029016   1.999895  0.000105  0.00
  OSS   -6.15895387   1.000000  1.000000  0.00
 Trip   -6.24018773   1.000000  1.000000  1.00
--------------------------------------------------

 Lagrangian Wab:   0.00637976  0.00637953

--------------------------------------------------
 SSR: 2SI-2SA-REKS(2,2) Hamiltonian matrix
               PPS           OSS
   PPS    -6.41029016    0.00895661
   OSS     0.00895661   -6.15895387
--------------------------------------------------

----------------------------------------------------------------
 SSR: 2SI-2SA-REKS(2,2) states
                    E_n       C_{PPS}    C_{OSS}
 SSR state  1   -6.41060894  -0.999367   0.035568
 SSR state  2   -6.15863509  -0.035568  -0.999367
----------------------------------------------------------------

 unrelaxed SSR FONs for S0:  1.998630  0.001370

Total Energy:                       -6.4106089357 H         -174.4415 eV
Extrapolated to 0:                  -6.4106089357 H         -174.4415 eV

----------------------------------------------------------------------------------
 Solving CP-REKS equation for  1 state vector...
----------------------------------------------------------------------------------
  CG solver: Constructing Y initial guess
  CG solver: Iteration    1    eps =    0.000110036237
  CG solver: Iteration    2    eps =    0.000071070647
  CG solver: Iteration    3    eps =    0.000005163884
  CG solver: Iteration    4    eps =    0.000000854287
  CG solver: Iteration    5    eps =    0.000000010606
  CG solver: Iteration    6    eps =    0.000000004445
  Convergence reached in CG solver after    6 iterations
  CG solver: Calculating converged R, Z, Q2 matrix
----------------------------------------------------------------------------------

----------------------------------------------------------------------------------
 Solving CP-REKS equation for SI between  1 and  2 state vectors...
----------------------------------------------------------------------------------
  CG solver: Constructing Y initial guess
  CG solver: Iteration    1    eps =    0.002597530753
  CG solver: Iteration    2    eps =    0.003690411186
  CG solver: Iteration    3    eps =    0.000513746500
  CG solver: Iteration    4    eps =    0.000006087492
  CG solver: Iteration    5    eps =    0.000000851893
  CG solver: Iteration    6    eps =    0.000000019950
  CG solver: Iteration    7    eps =    0.000000001282
  Convergence reached in CG solver after    7 iterations
  CG solver: Calculating converged R, Z, Q2 matrix
----------------------------------------------------------------------------------

--------------------------------------------------
 Gradient Information
--------------------------------------------------
           1 st state (SSR)
    -0.00365965     0.00606282     0.00088235
     0.00886212     0.00044190     0.00479017
     0.01356509    -0.00514457     0.00562339
     0.01047363     0.00256504    -0.00650308
    -0.01641938    -0.00615664    -0.00593255
    -0.01282181     0.00223145     0.00113972

           2 st state (SSR)
     0.00459343    -0.00666782     0.10657778
    -0.00850668     0.01229931    -0.11713900
    -0.01101168     0.00554069     0.02147646
    -0.00806495    -0.00468208    -0.01498931
     0.01207500    -0.00023849    -0.01250699
     0.01091488    -0.00625161     0.01658107
--------------------------------------------------
 Coupling Information
--------------------------------------------------
 between  1 and  2 states
--------------------------------------------------
 g vector - difference gradient
    -0.00423514     0.00640528    -0.05430999
     0.00890180    -0.00610056     0.06215456
     0.01323765    -0.00515313    -0.00787694
     0.01020366     0.00357320     0.00431814
    -0.01534005    -0.00279293     0.00333974
    -0.01276793     0.00406813    -0.00762551

 h vector - derivative coupling
    -0.00137688     0.00033421    -0.01863602
     0.00274122    -0.00220025     0.01452645
     0.01288161     0.00284905     0.00097804
     0.01278000    -0.00083552     0.00090158
    -0.01482659     0.00243647     0.00061996
    -0.01219936    -0.00258395     0.00160998

 G vector - GDV
    -0.00412654     0.00636532    -0.05284771
     0.00868440    -0.00592870     0.06096459
     0.01228839    -0.00534263    -0.00792654
     0.00926929     0.00362356     0.00424312
    -0.01424719    -0.00295907     0.00328722
    -0.01186835     0.00424153    -0.00772067

 H vector - DCV - non-adiabatic coupling
    -0.00664543     0.00313017    -0.08909595
     0.01336299    -0.01043117     0.07504098
     0.05472831     0.00982441     0.00164930
     0.05347005    -0.00229938     0.00478735
    -0.06302091     0.00885707     0.00339644
    -0.05189502    -0.00908110     0.00422187
--------------------------------------------------


--------------------------------------------------------------------------------
DFTB+ running times                          cpu [s]             wall clock [s]
--------------------------------------------------------------------------------
SCC                                    +     0.03  ( 69.8%)      0.03  ( 63.0%)
Post-SCC processing                    +     0.01  ( 26.5%)      0.01  ( 26.1%)
  Force calculation                          0.01  ( 25.8%)      0.01  ( 21.7%)
--------------------------------------------------------------------------------
Missing                                +     0.00  (  3.7%)      0.01  ( 10.9%)
Total                                  =     0.04  (100.0%)      0.05  (100.0%)
--------------------------------------------------------------------------------
