    14
  Step:     0            Position(A)                                  Velocity(au)
C        -6.03471476    -0.69184966    -0.04977980    -0.00032258    -0.00030474    -0.00008329
C        -4.68571855    -0.77954906     0.11193847     0.00014868     0.00025228     0.00001669
H        -6.42074980     0.30631523    -0.18344775    -0.00011735    -0.00080501     0.00119784
H        -6.74991710    -1.50813540     0.14106805    -0.00095026    -0.00018837     0.00095424
H        -4.05568942    -1.70579375     0.29757155     0.00063388     0.00024508     0.00071846
C        -3.88469316     0.39834514    -0.05712326     0.00018972     0.00002293    -0.00031582
C        -2.52964515     0.46328034     0.09764392    -0.00017505     0.00009895     0.00012548
H        -4.41544955     1.34819078    -0.35568231    -0.00027599     0.00014453    -0.00062450
H        -2.00587104    -0.42983252     0.38939666    -0.00077168    -0.00178695     0.00025052
C        -1.82239135     1.66805037    -0.09794527     0.00057769     0.00013651     0.00013015
H        -2.27301928     2.45671057    -0.63677960     0.00097659     0.00079377     0.00078303
N        -0.58152719     1.84663278     0.29924565    -0.00013853     0.00003758     0.00000270
H        -0.06704313     2.77608834     0.34386046    -0.00107138    -0.00090474    -0.00009848
H        -0.00988475     1.12538897     0.80295276    -0.00148511    -0.00047431    -0.00170789
    14
  Step:     1            Position(A)                                  Velocity(au)
C        -6.03842260    -0.69523709    -0.05062202    -0.00035255    -0.00031716    -0.00006927
C        -4.68375811    -0.77685277     0.11209763     0.00020700     0.00023925     0.00001241
H        -6.42263380     0.29778069    -0.17072666    -0.00023800    -0.00072840     0.00112176
H        -6.75986439    -1.50993992     0.15119172    -0.00085357    -0.00013347     0.00089126
H        -4.05034100    -1.70234270     0.30539379     0.00034003     0.00038992     0.00070909
C        -3.88313631     0.39867240    -0.06066605     0.00009343     0.00003846    -0.00033247
C        -2.53118981     0.46437747     0.09905796    -0.00010399     0.00009869     0.00013399
H        -4.41803566     1.34869295    -0.36210894    -0.00019101    -0.00005792    -0.00054952
H        -2.01380603    -0.44980677     0.39254972    -0.00069858    -0.00181307     0.00031022
C        -1.81626684     1.66944676    -0.09658089     0.00053634     0.00011773     0.00011777
H        -2.26310576     2.46669572    -0.62862765     0.00083246     0.00102288     0.00070918
N        -0.58255050     1.84714062     0.29944879    -0.00004998     0.00005394     0.00003337
H        -0.08039519     2.76439539     0.34223744    -0.00133202    -0.00117899    -0.00019313
H        -0.02752465     1.12102375     0.78345398    -0.00169574    -0.00035907    -0.00182337
    14
  Step:     2            Position(A)                                  Velocity(au)
C        -6.04242738    -0.69878815    -0.05129527    -0.00037642    -0.00033381    -0.00005261
C        -4.68118992    -0.77431500     0.11220989     0.00025880     0.00022403     0.00000796
H        -6.42595658     0.29037998    -0.15890711    -0.00037750    -0.00060391     0.00103471
H        -6.76859055    -1.51105538     0.16056613    -0.00073100    -0.00006672     0.00081836
H        -4.04825053    -1.69726348     0.31308426     0.00004461     0.00053609     0.00069581
C        -3.88264921     0.39918649    -0.06439663    -0.00000494     0.00005624    -0.00034990
C        -2.53192012     0.46543927     0.10057513    -0.00002685     0.00009301     0.00014409
H        -4.41962822     1.34692374    -0.36770408    -0.00009891    -0.00026328    -0.00047488
H        -2.02115383    -0.46949684     0.39618328    -0.00066108    -0.00173881     0.00034026
C        -1.81065791     1.67062592    -0.09536876     0.00048403     0.00009763     0.00010219
H        -2.25480770     2.47908805    -0.62126490     0.00068643     0.00122405     0.00064531
N        -0.58262049     1.84781274     0.29997574     0.00003324     0.00006681     0.00006100
H        -0.09618351     2.75029567     0.33963531    -0.00150365    -0.00132282    -0.00027600
H        -0.04698240     1.11753357     0.76306308    -0.00180811    -0.00032661    -0.00186455
    14
  Step:     3            Position(A)                                  Velocity(au)
C        -6.04665751    -0.70253978    -0.05177304    -0.00039355    -0.00035271    -0.00003380
C        -4.67809635    -0.77195162     0.11227167     0.00030233     0.00020817     0.00000302
H        -6.43089242     0.28456895    -0.14809049    -0.00052888    -0.00044685     0.00094007
H        -6.77585643    -1.51139953     0.16909481    -0.00059093     0.00000301     0.00073804
H        -4.04936515    -1.69061478     0.32061594    -0.00023971     0.00067028     0.00068157
C        -3.88324446     0.39990269    -0.06832068    -0.00010363     0.00007447    -0.00036755
C        -2.53177730     0.46641224     0.10221027     0.00005487     0.00008320     0.00015525
H        -4.42019954     1.34293329    -0.37249787    -0.00000894    -0.00045658    -0.00040549
H        -2.02826849    -0.48784649     0.39999360    -0.00065147    -0.00157482     0.00034519
C        -1.80567775     1.67158264    -0.09434535     0.00042230     0.00007776     0.00008337
H        -2.24808872     2.49347413    -0.61451022     0.00054776     0.00137963     0.00060283
N        -0.58182323     1.84860215     0.30078336     0.00010640     0.00007449     0.00008403
H        -0.11329048     2.73545625     0.33619947    -0.00156260    -0.00129566    -0.00034453
H        -0.06708041     1.11387864     0.74266334    -0.00180790    -0.00039718    -0.00182238
    14
  Step:     4            Position(A)                                  Velocity(au)
C        -6.05103709    -0.70650436    -0.05203466    -0.00040385    -0.00037147    -0.00001340
C        -4.67457598    -0.76976084     0.11227591     0.00033647     0.00019342    -0.00000274
H        -6.43752682     0.28060423    -0.13834122    -0.00068336    -0.00027711     0.00084109
H        -6.78151832    -1.51098943     0.17671213    -0.00044221     0.00006669     0.00065336
H        -4.05349471    -1.68259981     0.32799490    -0.00050057     0.00077933     0.00066953
C        -3.88491633     0.40081561    -0.07243755    -0.00020126     0.00009109    -0.00038485
C        -2.53071971     0.46725943     0.10397162     0.00013982     0.00007094     0.00016687
H        -4.41982387     1.33693523    -0.37657501     0.00006954    -0.00062295    -0.00034641
H        -2.03540599    -0.50394899     0.40373499    -0.00066054    -0.00133610     0.00033062
C        -1.80141920     1.67232717    -0.09354492     0.00035324     0.00005925     0.00006177
H        -2.24282449     2.50927012    -0.60807687     0.00042281     0.00147704     0.00058919
N        -0.58029277     1.84944238     0.30181406     0.00016595     0.00007534     0.00010154
H        -0.13036827     2.72195074     0.33209809    -0.00149401    -0.00107020    -0.00039745
H        -0.08653376     1.10884451     0.72319497    -0.00169209    -0.00057864    -0.00169727
    14
  Step:     5            Position(A)                                  Velocity(au)
C        -6.05549243    -0.71066646    -0.05206621    -0.00040786    -0.00038755     0.00000795
C        -4.67073540    -0.76772015     0.11221182     0.00036103     0.00018186    -0.00000966
H        -6.44584224     0.27850655    -0.12969010    -0.00083149    -0.00011630     0.00074044
H        -6.78553058    -1.50994058     0.18338823    -0.00029371     0.00011552     0.00056769
H        -4.06031598    -1.67356541     0.33526316    -0.00072619     0.00085041     0.00066303
C        -3.88764734     0.40189553    -0.07673998    -0.00029720     0.00010366    -0.00040118
C        -2.52871850     0.46796415     0.10586076     0.00022713     0.00005819     0.00017834
H        -4.41867828     1.32930507    -0.38007631     0.00012727    -0.00074782    -0.00030272
H        -2.04271897    -0.51707616     0.40722649    -0.00067890    -0.00103955     0.00030249
C        -1.79794993     1.67287879    -0.09299403     0.00027926     0.00004256     0.00003831
H        -2.23883892     2.52578729    -0.60162051     0.00031469     0.00150998     0.00060746
N        -0.57819266     1.85025032     0.30300466     0.00021048     0.00006828     0.00011353
H        -0.14597485     2.71204355     0.32750442    -0.00129903    -0.00064636    -0.00043536
H        -0.10409805     1.10121980     0.70553236    -0.00147230    -0.00085942    -0.00150155
    14
  Step:     6            Position(A)                                  Velocity(au)
C        -6.05995981    -0.71498272    -0.05186082    -0.00040690    -0.00039855     0.00002956
C        -4.66667770    -0.76578224     0.11206464     0.00037697     0.00017593    -0.00001811
H        -6.45571734     0.27805986    -0.12214275    -0.00096444     0.00001555     0.00064014
H        -6.78794389    -1.50846222     0.18913149    -0.00015398     0.00014137     0.00048460
H        -4.06938145    -1.66399543     0.34249992    -0.00090599     0.00087171     0.00066555
C        -3.89141813     0.40308334    -0.08121410    -0.00039168     0.00010929    -0.00041594
C        -2.52575072     0.46853243     0.10787319     0.00031653     0.00004707     0.00018916
H        -4.41703950     1.32057533    -0.38319770     0.00015552    -0.00081749    -0.00027930
H        -2.05025831    -0.52669103     0.41035255    -0.00069761    -0.00070274     0.00026672
C        -1.79530985     1.67325821    -0.09270678     0.00020291     0.00002754     0.00001427
H        -2.23594004     2.54230390    -0.59478760     0.00022352     0.00147817     0.00065672
N        -0.57568810     1.85093621     0.30429769     0.00024120     0.00005350     0.00012096
H        -0.15878709     2.70781037     0.32257383    -0.00099974    -0.00006321    -0.00046063
H        -0.11874307     1.09004298     0.69034575    -0.00117485    -0.00120531    -0.00125900
    14
  Step:     7            Position(A)                                  Velocity(au)
C        -6.06439420    -0.71938554    -0.05141950    -0.00040294    -0.00040257     0.00005072
C        -4.66248839    -0.76387135     0.11181553     0.00038628     0.00017807    -0.00002845
H        -6.46694112     0.27884677    -0.11568591    -0.00107510     0.00010290     0.00054166
H        -6.78889914    -1.50684777     0.19398972    -0.00003071     0.00013723     0.00040759
H        -4.08013626    -1.65449500     0.34982332    -0.00103143     0.00083355     0.00068063
C        -3.89621605     0.40428652    -0.08583939    -0.00048496     0.00010517    -0.00042848
C        -2.52179379     0.46899381     0.10999910     0.00040746     0.00003945     0.00019883
H        -4.41527599     1.31142097    -0.38618648     0.00014676    -0.00082049    -0.00028028
H        -2.05798064    -0.53244984     0.41306158    -0.00070831    -0.00034351     0.00022896
C        -1.79351099     1.67348128    -0.09268175     0.00012669     0.00001377    -0.00000894
H        -2.23394905     2.55812507    -0.58725360     0.00014723     0.00138605     0.00073291
N        -0.57291584     1.85142076     0.30565079     0.00026179     0.00003280     0.00012544
H        -0.16784600     2.71066068     0.31742727    -0.00063790     0.00059970    -0.00047647
H        -0.12980020     1.07485129     0.67798938    -0.00083608    -0.00156322    -0.00100053
    14
  Step:     8            Position(A)                                  Velocity(au)
C        -6.06877499    -0.72378980    -0.05075116    -0.00039794    -0.00039843     0.00007078
C        -4.65822718    -0.76188666     0.11144229     0.00039081     0.00018970    -0.00004085
H        -6.47923727     0.28031107    -0.11029296    -0.00115885     0.00013648     0.00044602
H        -6.78861568    -1.50546015     0.19804829     0.00006977     0.00009766     0.00033981
H        -4.09194587    -1.64575995     0.35739000    -0.00109732     0.00073032     0.00071142
C        -3.90202759     0.40538416    -0.09058798    -0.00057539     0.00008974    -0.00043810
C        -2.51683666     0.46939544     0.11222305     0.00049726     0.00003625     0.00020674
H        -4.41382875     1.30262563    -0.38932926     0.00009599    -0.00074968    -0.00030824
H        -2.06575385    -0.53420592     0.41536138    -0.00070299     0.00001972     0.00019429
C        -1.79253822     1.67355945    -0.09290244     0.00005307     0.00000130    -0.00003019
H        -2.23271916     2.57262644    -0.57875378     0.00008247     0.00124126     0.00082947
N        -0.56996086     1.85165368     0.30704183     0.00027738     0.00000931     0.00012880
H        -0.17274243     2.72092997     0.31215015    -0.00026569     0.00123764    -0.00048536
H        -0.13703402     1.05584448     0.66845715    -0.00049430    -0.00187227    -0.00075728
    14
  Step:     9            Position(A)                                  Velocity(au)
C        -6.07309995    -0.72810190    -0.04987114    -0.00039274    -0.00038574     0.00008930
C        -4.65393860    -0.75972136     0.11092181     0.00039077     0.00021008    -0.00005525
H        -6.49229311     0.28183246    -0.10592846    -0.00121361     0.00011356     0.00035378
H        -6.78737289    -1.50471127     0.20142379     0.00014314     0.00001946     0.00028361
H        -4.10414218    -1.63851781     0.36538711    -0.00110328     0.00056287     0.00075975
C        -3.90880392     0.40624979    -0.09542372    -0.00065815     0.00006393    -0.00044409
C        -2.51091528     0.46978695     0.11452197     0.00058016     0.00003711     0.00021209
H        -4.41317613     1.29502033    -0.39292984     0.00000203    -0.00060464    -0.00036346
H        -2.07335996    -0.53201834     0.41731207    -0.00067402     0.00036776     0.00016729
C        -1.79234997     1.67350968    -0.09334223    -0.00001559    -0.00000892    -0.00004880
H        -2.23214483     2.58527991    -0.56910739     0.00002538     0.00105321     0.00093822
N        -0.56684763     1.85162443     0.30846857     0.00029306    -0.00001343     0.00013261
H        -0.17365842     2.73773636     0.30680900     0.00006827     0.00174830    -0.00048799
H        -0.14061396     1.03389191     0.66142244    -0.00018155    -0.00207822    -0.00055379
    14
  Step:    10            Position(A)                                  Velocity(au)
C        -6.07736702    -0.73222867    -0.04879756    -0.00038675    -0.00036491     0.00010620
C        -4.64967832    -0.75729079     0.11023353     0.00038449     0.00023631    -0.00007126
H        -6.50578738     0.28279537    -0.10255331    -0.00123977     0.00003717     0.00026510
H        -6.78548426    -1.50503438     0.20425291     0.00018778    -0.00009774     0.00024014
H        -4.11608227    -1.63344601     0.37401092    -0.00105480     0.00034063     0.00082476
C        -3.91642598     0.40678271    -0.10030336    -0.00072706     0.00003094    -0.00044606
C        -2.50414464     0.47020736     0.11686298     0.00064926     0.00004115     0.00021402
H        -4.41378426     1.28939791    -0.39728064    -0.00013104    -0.00039381    -0.00044335
H        -2.08049926    -0.52616045     0.41902126    -0.00061423     0.00068075     0.00015249
C        -1.79287935     1.67336427    -0.09397000    -0.00007713    -0.00001561    -0.00006442
H        -2.23216394     2.59566739    -0.55822836    -0.00002806     0.00083261     0.00105071
N        -0.56354968     1.85135983     0.30994292     0.00031239    -0.00003264     0.00013773
H        -0.17124898     2.75917730     0.30147443     0.00033062     0.00205864    -0.00048333
H        -0.14100567     1.01037943     0.65634190     0.00008155    -0.00214525    -0.00040417
    14
  Step:    11            Position(A)                                  Velocity(au)
C        -6.08156075    -0.73608494    -0.04754789    -0.00037875    -0.00033694     0.00012160
C        -4.64552711    -0.75455168     0.10936295     0.00037001     0.00026434    -0.00008817
H        -6.51941544     0.28264552    -0.10012893    -0.00123976    -0.00008525     0.00017983
H        -6.78326486    -1.50684956     0.20667729     0.00020531    -0.00025084     0.00020911
H        -4.12721804    -1.63106588     0.38343020    -0.00096332     0.00008247     0.00090207
C        -3.92470974     0.40692674    -0.10518222    -0.00077771    -0.00000498    -0.00044421
C        -2.49671142     0.47068724     0.11920396     0.00069951     0.00004807     0.00021177
H        -4.41604295     1.28640500    -0.40262887    -0.00029344    -0.00013533    -0.00054218
H        -2.08679743    -0.51712562     0.42064805    -0.00051739     0.00093879     0.00015483
C        -1.79403743     1.67316819    -0.09475152    -0.00012975    -0.00001807    -0.00007670
H        -2.23275876     2.60349488    -0.54612105    -0.00008190     0.00059140     0.00115919
N        -0.56001361     1.85091035     0.31148164     0.00033663    -0.00004690     0.00014420
H        -0.16642539     2.78277314     0.29623532     0.00050782     0.00213809    -0.00046971
H        -0.13882997     0.98696041     0.65258035     0.00028668    -0.00206072    -0.00031183
    14
  Step:    12            Position(A)                                  Velocity(au)
C        -6.08565290    -0.73959993    -0.04613731    -0.00036793    -0.00030341     0.00013576
C        -4.64158355    -0.75150777     0.10830473     0.00034629     0.00028989    -0.00010503
H        -6.53290956     0.28093033    -0.09861918    -0.00121757    -0.00024331     0.00009775
H        -6.78099275    -1.51052200     0.20882752     0.00020091    -0.00043280     0.00018879
H        -4.13715666    -1.63164184     0.39374533    -0.00084460    -0.00018506     0.00098395
C        -3.93343979     0.40667385    -0.11002133    -0.00080860    -0.00003946    -0.00043931
C        -2.48884142     0.47125909     0.12149596     0.00072862     0.00005837     0.00020487
H        -4.42020378     1.28643724    -0.40914193    -0.00047044     0.00014424    -0.00065137
H        -2.09181823    -0.50562256     0.42240840    -0.00037865     0.00112306     0.00017948
C        -1.79571782     1.67296898    -0.09564785    -0.00017204    -0.00001643    -0.00008515
H        -2.23395555     2.60860549    -0.53286876    -0.00014003     0.00034249     0.00125696
N        -0.55618526     1.85033390     0.31309751     0.00036504    -0.00005608     0.00015142
H        -0.16013942     2.80595212     0.29119867     0.00060307     0.00199506    -0.00044592
H        -0.13473392     0.96529721     0.64952010     0.00043555    -0.00183282    -0.00027190
    14
  Step:    13            Position(A)                                  Velocity(au)
C        -6.08960987    -0.74272252    -0.04457790    -0.00035409    -0.00026629     0.00014898
C        -4.63795130    -0.74820981     0.10706524     0.00031323     0.00030879    -0.00012071
H        -6.54605215     0.27732266    -0.09799047    -0.00117813    -0.00042501     0.00001862
H        -6.77886948    -1.51631800     0.21080739     0.00018304    -0.00063290     0.00017613
H        -4.14569518    -1.63511442     0.40495592    -0.00071592    -0.00043188     0.00106051
C        -3.94239939     0.40606349    -0.11479297    -0.00082037    -0.00006829    -0.00043251
C        -2.48077151     0.47196422     0.12368590     0.00073634     0.00007284     0.00019305
H        -4.42633483     1.28956061    -0.41687875    -0.00064471     0.00041370    -0.00076044
H        -2.09508115    -0.49255659     0.42457458    -0.00019521     0.00121785     0.00023104
C        -1.79780117     1.67280883    -0.09661436    -0.00020302    -0.00001135    -0.00008929
H        -2.23582208     2.61098740    -0.51862275    -0.00020610     0.00009927     0.00133820
N        -0.55202769     1.84968352     0.31479431     0.00039568    -0.00006090     0.00015853
H        -0.15323201     2.82641887     0.28648003     0.00062982     0.00166380    -0.00041172
H        -0.12930140     0.94686407     0.64663209     0.00053613    -0.00148406    -0.00027475
    14
  Step:    14            Position(A)                                  Velocity(au)
C        -6.09339932    -0.74542543    -0.04287804    -0.00033753    -0.00022787     0.00016162
C        -4.63473102    -0.74475230     0.10566387     0.00027124     0.00031743    -0.00013406
H        -6.55868335     0.27163241    -0.09821180    -0.00112696    -0.00061758    -0.00005775
H        -6.77698849    -1.52436788     0.21268061     0.00016230    -0.00083765     0.00016713
H        -4.15281877    -1.64108997     0.41694596    -0.00059285    -0.00062984     0.00112148
C        -3.95138688     0.40517992    -0.11948340    -0.00081471    -0.00008770    -0.00042509
C        -2.47273267     0.47285270     0.12571919     0.00072372     0.00009204     0.00017630
H        -4.43430811     1.29548769    -0.42577804    -0.00079942     0.00064266    -0.00085889
H        -2.09608880    -0.47897977     0.42746289     0.00003261     0.00121391     0.00031236
C        -1.80015929     1.67272064    -0.09760121    -0.00022206    -0.00000377    -0.00008869
H        -2.23846432     2.61077725    -0.50359307    -0.00028337    -0.00012478     0.00139802
N        -0.54752899     1.84900169     0.31656560     0.00042621    -0.00006234     0.00016460
H        -0.14636086     2.84235098     0.28219158     0.00060561     0.00119032    -0.00036785
H        -0.12300499     0.93283052     0.64350948     0.00059950    -0.00104465    -0.00030884
    14
  Step:    15            Position(A)                                  Velocity(au)
C        -6.09699391    -0.74770757    -0.04104221    -0.00031877    -0.00019057     0.00017402
C        -4.63201731    -0.74126536     0.10413241     0.00022093     0.00031314    -0.00014406
H        -6.57070656     0.26381192    -0.09925387    -0.00106996    -0.00080803    -0.00013158
H        -6.77531883    -1.53464320     0.21446375     0.00014992    -0.00103242     0.00015748
H        -4.15866494    -1.64889339     0.42949040    -0.00048678    -0.00075764     0.00115808
C        -3.96022279     0.40414483    -0.12409266    -0.00079374    -0.00009485    -0.00041819
C        -2.46493879     0.47397783     0.12754271     0.00069269     0.00011577     0.00015494
H        -4.44382368     1.30361995    -0.43566861    -0.00092116     0.00080692    -0.00093794
H        -2.09436766    -0.46600002     0.43140797     0.00030017     0.00111242     0.00042316
C        -1.80265911     1.67272627    -0.09855461    -0.00022888     0.00000529    -0.00008307
H        -2.24202123     2.60825761    -0.48803842    -0.00037457    -0.00031673     0.00143246
N        -0.54270354     1.84831973     0.31839530     0.00045434    -0.00006133     0.00016884
H        -0.13998311     2.85245929     0.27843259     0.00054819     0.00062261    -0.00031582
H        -0.11618609     0.92401041     0.63987561     0.00063779    -0.00054766    -0.00036253
    14
  Step:    16            Position(A)                                  Velocity(au)
C        -6.10037298    -0.74959446    -0.03907104    -0.00029840    -0.00015673     0.00018651
C        -4.62989774    -0.73790179     0.10251236     0.00016295     0.00029454    -0.00015000
H        -6.58209068     0.25395523    -0.10109040    -0.00101313    -0.00098366    -0.00020321
H        -6.77370865    -1.54695405     0.21612568     0.00015593    -0.00120327     0.00014313
H        -4.16346810    -1.65766485     0.44228107    -0.00040389    -0.00080369     0.00116441
C        -3.96875149     0.40310496    -0.12863214    -0.00075958    -0.00008812    -0.00041267
C        -2.45757875     0.47538543     0.12910885     0.00064581     0.00014276     0.00012969
H        -4.45446017     1.31314059    -0.44629724    -0.00100160     0.00089182    -0.00099177
H        -2.08952191    -0.45464344     0.43672026     0.00059767     0.00092806     0.00055886
C        -1.80516638     1.67283630    -0.09941852    -0.00022354     0.00001484    -0.00007232
H        -2.24665884     2.60384820    -0.47225530    -0.00048177    -0.00046492     0.00143871
N        -0.53758940     1.84765998     0.32025940     0.00047806    -0.00005858     0.00017061
H        -0.13436820     2.85597177     0.27528240     0.00047396     0.00000648    -0.00025767
H        -0.10905219     0.92084939     0.63557852     0.00066320    -0.00002675    -0.00042478
    14
  Step:    17            Position(A)                                  Velocity(au)
C        -6.10352203    -0.75113644    -0.03696185    -0.00027691    -0.00012846     0.00019936
C        -4.62845256    -0.73482173     0.10085093     0.00009802     0.00026166    -0.00015156
H        -6.59287062     0.24229252    -0.10369941    -0.00096242    -0.00113254    -0.00027309
H        -6.77190746    -1.56096700     0.21759498     0.00018772    -0.00133867     0.00012101
H        -4.16750080    -1.66647558     0.45496411    -0.00034555    -0.00076634     0.00113801
C        -3.97684016     0.40221700    -0.13312069    -0.00071427    -0.00006733    -0.00040902
C        -2.45081045     0.47710109     0.13037998     0.00058611     0.00017064     0.00010165
H        -4.46573553     1.32313017    -0.45736549    -0.00103778     0.00089308    -0.00101793
H        -2.08129247    -0.44569685     0.44363410     0.00091015     0.00068921     0.00071013
C        -1.80754948     1.67305095    -0.10013674    -0.00020646     0.00002406    -0.00005653
H        -2.25256092     2.59808668    -0.45656387    -0.00060586    -0.00056024     0.00141549
N        -0.53224517     1.84703817     0.32212773     0.00049556    -0.00005463     0.00016940
H        -0.12961440     2.85260109     0.27279551     0.00039816    -0.00061459    -0.00019589
H        -0.10167736     0.92342517     0.63058280     0.00068801     0.00048443    -0.00048523
    14
  Step:    18            Position(A)                                  Velocity(au)
C        -6.10643086    -0.75240484    -0.03470976    -0.00025457    -0.00010744     0.00021269
C        -4.62775338    -0.73217758     0.09919680     0.00002705     0.00021580    -0.00014878
H        -6.60314543     0.22917870    -0.10706471    -0.00092347    -0.00124410    -0.00034182
H        -6.76960194    -1.57623995     0.21877299     0.00024913    -0.00143072     0.00008934
H        -4.17102776    -1.67443000     0.46717720    -0.00030971    -0.00065213     0.00107954
C        -3.98437741     0.40163196    -0.13758034    -0.00065971    -0.00003361    -0.00040736
C        -2.44475645     0.47911858     0.13133272     0.00051690     0.00019621     0.00007226
H        -4.47716351     1.33267847    -0.46856649    -0.00103112     0.00081532    -0.00101693
H        -2.06961063    -0.43956560     0.45225577     0.00121877     0.00043423     0.00086366
C        -1.80968312     1.67336274    -0.10065521    -0.00017837     0.00003243    -0.00003601
H        -2.25991312     2.59159193    -0.44128867    -0.00074595    -0.00059768     0.00136344
N        -0.52674797     1.84646479     0.32396541     0.00050519    -0.00005000     0.00016484
H        -0.12565773     2.84252641     0.27099685     0.00033583    -0.00119746    -0.00013345
H        -0.09400072     0.93144731     0.62496308     0.00072477     0.00095214    -0.00053405
    14
  Step:    19            Position(A)                                  Velocity(au)
C        -6.10909126    -0.75348687    -0.03230886    -0.00023148    -0.00009483     0.00022656
C        -4.62786085    -0.73010075     0.09759613    -0.00004885     0.00015934    -0.00014204
H        -6.61307332     0.21507539    -0.11117739    -0.00090118    -0.00130994    -0.00041013
H        -6.76645737    -1.59226665     0.21954957     0.00034039    -0.00147559     0.00004777
H        -4.17427620    -1.68074225     0.47858111    -0.00029223    -0.00047326     0.00099213
C        -3.99127267     0.40148175    -0.14203240    -0.00059781     0.00001082    -0.00040746
C        -2.43950237     0.48139364     0.13196071     0.00044147     0.00021609     0.00004306
H        -4.48829325     1.34096677    -0.47961284    -0.00098607     0.00066946    -0.00099146
H        -2.05462961    -0.43619714     0.46252827     0.00150329     0.00020412     0.00100426
C        -1.81145176     1.67376046    -0.10092444    -0.00014034     0.00003984    -0.00001127
H        -2.26888011     2.58501132    -0.42673591    -0.00089883    -0.00057764     0.00128535
N        -0.52119313     1.84594438     0.32573402     0.00050525    -0.00004533     0.00015667
H        -0.12226750     2.82640438     0.26987598     0.00030286    -0.00169708    -0.00007392
H        -0.08582162     0.94425498     0.61889943     0.00078648     0.00134263    -0.00056182
    14
  Step:    20            Position(A)                                  Velocity(au)
C        -6.11149493    -0.75447935    -0.02975340    -0.00020758    -0.00009117     0.00024090
C        -4.62882214    -0.72869164     0.09608939    -0.00012833     0.00009543    -0.00013197
H        -6.62286044     0.20052128    -0.11603711    -0.00089905    -0.00132499    -0.00047878
H        -6.76215535    -1.60852135     0.21981802     0.00045855    -0.00147340    -0.00000283
H        -4.17742089    -1.68478356     0.48888196    -0.00028816    -0.00024510     0.00088056
C        -3.99745554     0.40186866    -0.14649432    -0.00053040     0.00006293    -0.00040888
C        -2.43509853     0.48384597     0.13227473     0.00036286     0.00022743     0.00001551
H        -4.49873578     1.34732416    -0.49025658    -0.00090880     0.00047023    -0.00094561
H        -2.03672339    -0.43509999     0.47422596     0.00174513     0.00003406     0.00111773
C        -1.81275341     1.67423424    -0.10090184    -0.00009379     0.00004664     0.00001694
H        -2.27957685     2.57895496    -0.41316925    -0.00105839    -0.00050690     0.00118614
N        -0.51569472     1.84547306     0.32739293     0.00049402    -0.00004160     0.00014477