|===============================================================================
|
|  DFTB+ release 20.1
|
|  Copyright (C) 2006 - 2020  DFTB+ developers group
|
|===============================================================================
|
|  When publishing results obtained with DFTB+, please cite the following
|  reference:
|
|  * DFTB+, a software package for efficient approximate density functional
|    theory based atomistic simulations, J. Chem. Phys. 152, 124101 (2020).
|    [doi: 10.1063/1.5143190]
|
|  You should also cite additional publications crediting the parametrization
|  data you use. Please consult the documentation of the SK-files for the
|  references.
|
|===============================================================================

Reading input file 'dftb_in.hsd'
Parser version: 8

--------------------------------------------------------------------------------
Reading SK-files:
Done.


Processed input in HSD format written to 'dftb_pin.hsd'

Starting initialization...
--------------------------------------------------------------------------------
OpenMP threads:              1
Chosen random seed:          511176601
Mode:                        Static calculation
Self consistent charges:     Yes
SCC-tolerance:                 0.100000E-05
Max. scc iterations:                   1000
Shell resolved Hubbard:      No
Spin polarisation:           No
Nr. of up electrons:             6.000000
Nr. of down electrons:           6.000000
Periodic boundaries:         No
Electronic solver:           Relatively robust
Maximal SCC-cycles:                    1000
Initial charges:             Set automatically (system chrg:   0.100E+01)
Included shells:             C:  s, p
                             N:  s, p
                             H:  s
Spin coupling constants:     C   1(s)-1(s):  -0.455900E-01
                             C   1(s)-2(p):  -0.293000E-01
                             C   2(p)-1(s):  -0.293000E-01
                             C   2(p)-2(p):  -0.275500E-01
                             N   1(s)-1(s):  -0.468700E-01
                             N   1(s)-2(p):  -0.317000E-01
                             N   2(p)-1(s):  -0.317000E-01
                             N   2(p)-2(p):  -0.307200E-01
                             H   1(s)-1(s):  -0.792500E-01
Range separated hybrid:      Yes
  Screening parameter omega:   0.300000E+00
  Range separated algorithm:   MatrixBased
Extra options:
                             Mulliken analysis
                             Force calculation
Force type                   original
                             Eigenvector printing


REKS Calcuation:             Yes
SSR(2,2) Calcuation:         Yes
Energy Functional:           (PPS+OSS)/2
Number of Core Orbitals:                  5
Number of Active Orbitals:                2
Number of Basis:                         12
Number of States:                         2
State-Averaging Weight:          0.500000
                                 0.500000
State of Interest:                        1
Initial Guess:               Diagonalize H0 matrix
Newton-Raphson for FON opt:  Yes
NR max. Iterations:                      50
Level Shifting:              Yes
Shift Value:                     0.300000
W Scale Factor:              C  =    3.000000
                             N  =    3.000000
                             H  =    3.000000
Transition Dipole:           No
Gradient of Microstate:      No
CP-REKS Solver:              Preconditioned Conjugate-Gradient
CG max. Iterations:                     100
CG Tolerance:                  0.100000E-07
Memory for A and Hxc:        Direct Updating Without Saving
Non-Adiabatic Coupling:      Yes

--------------------------------------------------------------------------------

***  Geometry step: 0

  iSCC       reks energy        Diff energy         x_a       SCC error   
    1       -6.2641220124       0.0000000000     0.998930    1.19110992
    2       -6.2772248731      -0.0131028607     0.999576    0.10590461
    3       -6.2807957500      -0.0035708769     0.999767    0.04759939
    4       -6.2822884121      -0.0014926621     0.999844    0.02389016
    5       -6.2830341435      -0.0007457314     0.999880    0.01273359
    6       -6.2834675576      -0.0004334141     0.999899    0.00684656
    7       -6.2837483108      -0.0002807532     0.999909    0.00472469
    8       -6.2839418888      -0.0001935780     0.999916    0.00419742
    9       -6.2840796662      -0.0001377774     0.999920    0.00368137
   10       -6.2841792112      -0.0000995451     0.999923    0.00324500
   11       -6.2842515984      -0.0000723871     0.999925    0.00283330
   12       -6.2843043482      -0.0000527498     0.999927    0.00245700
   13       -6.2843427853      -0.0000384371     0.999928    0.00211946
   14       -6.2843707616      -0.0000279763     0.999928    0.00182060
   15       -6.2843910913      -0.0000203298     0.999929    0.00155853
   16       -6.2844058385      -0.0000147472     0.999929    0.00133047
   17       -6.2844165173      -0.0000106788     0.999930    0.00115833
   18       -6.2844242372      -0.0000077199     0.999930    0.00100751
   19       -6.2844298095      -0.0000055723     0.999930    0.00087263
   20       -6.2844338261      -0.0000040166     0.999930    0.00075312
   21       -6.2844367176      -0.0000028916     0.999930    0.00064803
   22       -6.2844387970      -0.0000020793     0.999930    0.00055617
   23       -6.2844402908      -0.0000014938     0.999930    0.00047630
   24       -6.2844413630      -0.0000010722     0.999930    0.00040713
   25       -6.2844421320      -0.0000007690     0.999930    0.00034745
   26       -6.2844426833      -0.0000005512     0.999930    0.00029610
   27       -6.2844430781      -0.0000003949     0.999930    0.00025205
   28       -6.2844433608      -0.0000002827     0.999930    0.00021433
   29       -6.2844435632      -0.0000002023     0.999930    0.00018209
   30       -6.2844437079      -0.0000001448     0.999930    0.00015458
   31       -6.2844438115      -0.0000001035     0.999930    0.00013114
   32       -6.2844438855      -0.0000000740     0.999930    0.00011120
   33       -6.2844439384      -0.0000000529     0.999930    0.00009424
   34       -6.2844439762      -0.0000000378     0.999930    0.00007983
   35       -6.2844440032      -0.0000000270     0.999930    0.00006760
   36       -6.2844440225      -0.0000000193     0.999930    0.00005723
   37       -6.2844440363      -0.0000000138     0.999930    0.00004843
   38       -6.2844440461      -0.0000000098     0.999930    0.00004098
   39       -6.2844440532      -0.0000000070     0.999930    0.00003466
   40       -6.2844440582      -0.0000000050     0.999930    0.00002932
   41       -6.2844440618      -0.0000000036     0.999930    0.00002479
   42       -6.2844440643      -0.0000000026     0.999930    0.00002096
   43       -6.2844440662      -0.0000000018     0.999930    0.00001772
   44       -6.2844440675      -0.0000000013     0.999930    0.00001498
   45       -6.2844440684      -0.0000000009     0.999930    0.00001266
   46       -6.2844440691      -0.0000000007     0.999930    0.00001070
   47       -6.2844440695      -0.0000000005     0.999930    0.00000905
   48       -6.2844440699      -0.0000000003     0.999930    0.00000765
   49       -6.2844440701      -0.0000000002     0.999930    0.00000646
   50       -6.2844440703      -0.0000000002     0.999930    0.00000546
   51       -6.2844440704      -0.0000000001     0.999930    0.00000461
   52       -6.2844440705      -0.0000000001     0.999930    0.00000390
   53       -6.2844440706      -0.0000000001     0.999930    0.00000329
   54       -6.2844440706      -0.0000000000     0.999930    0.00000278
   55       -6.2844440706      -0.0000000000     0.999930    0.00000235
   56       -6.2844440707      -0.0000000000     0.999930    0.00000199
   57       -6.2844440707      -0.0000000000     0.999930    0.00000168
   58       -6.2844440707      -0.0000000000     0.999930    0.00000142
   59       -6.2844440707      -0.0000000000     0.999930    0.00000120
   60       -6.2844440707      -0.0000000000     0.999930    0.00000101
   61       -6.2844440707      -0.0000000000     0.999930    0.00000086
  
--------------------------------------------------
 Final SA-REKS(2,2) energy:      -6.28444407
  
 State     Energy      FON(1)    FON(2)   Spin
  PPS   -6.40792526   1.999860  0.000140  0.00
  OSS   -6.16096288   1.000000  1.000000  0.00
 Trip   -6.24341699   1.000000  1.000000  1.00
--------------------------------------------------

 Lagrangian Wab:   0.00874053  0.00874022

--------------------------------------------------
 SSR: 2SI-2SA-REKS(2,2) Hamiltonian matrix
               PPS           OSS
   PPS    -6.40792526    0.01225721
   OSS     0.01225721   -6.16096288
--------------------------------------------------

----------------------------------------------------------------
 SSR: 2SI-2SA-REKS(2,2) states
                    E_n       C_{PPS}    C_{OSS}
 SSR state  1   -6.40853212  -0.998777   0.049450
 SSR state  2   -6.16035603  -0.049450  -0.998777
----------------------------------------------------------------

 unrelaxed SSR FONs for S0:  1.997415  0.002585

Total Energy:                       -6.4085321151 H         -174.3850 eV
Extrapolated to 0:                  -6.4085321151 H         -174.3850 eV

----------------------------------------------------------------------------------
 Solving CP-REKS equation for  1 state vector...
----------------------------------------------------------------------------------
  CG solver: Constructing Y initial guess
  CG solver: Iteration    1    eps =    0.000176223607
  CG solver: Iteration    2    eps =    0.000100103203
  CG solver: Iteration    3    eps =    0.000020893231
  CG solver: Iteration    4    eps =    0.000001204856
  CG solver: Iteration    5    eps =    0.000000017465
  CG solver: Iteration    6    eps =    0.000000008224
  Convergence reached in CG solver after    6 iterations
  CG solver: Calculating converged R, Z, Q2 matrix
----------------------------------------------------------------------------------

----------------------------------------------------------------------------------
 Solving CP-REKS equation for SI between  1 and  2 state vectors...
----------------------------------------------------------------------------------
  CG solver: Constructing Y initial guess
  CG solver: Iteration    1    eps =    0.004183884081
  CG solver: Iteration    2    eps =    0.006327467577
  CG solver: Iteration    3    eps =    0.000751378216
  CG solver: Iteration    4    eps =    0.000008915499
  CG solver: Iteration    5    eps =    0.000001161444
  CG solver: Iteration    6    eps =    0.000000017584
  CG solver: Iteration    7    eps =    0.000000000525
  Convergence reached in CG solver after    7 iterations
  CG solver: Calculating converged R, Z, Q2 matrix
----------------------------------------------------------------------------------

--------------------------------------------------
 Gradient Information
--------------------------------------------------
           1 st state (SSR)
     0.00229083     0.00170711     0.01651962
    -0.00289000    -0.00553595    -0.01196149
     0.01364399    -0.00655940     0.00163338
     0.01726568     0.00221841    -0.00481464
    -0.01573571     0.00286269    -0.00358643
    -0.01457480     0.00530714     0.00220955

           2 st state (SSR)
    -0.00068645    -0.00516274     0.12635868
     0.00264636     0.00438744    -0.13827990
    -0.01671750    -0.01032627     0.01837925
    -0.01463272     0.00858397    -0.01268196
     0.01254657    -0.00476746    -0.01253098
     0.01684374     0.00728506     0.01875491
--------------------------------------------------
 Coupling Information
--------------------------------------------------
 between  1 and  2 states
--------------------------------------------------
 g vector - difference gradient
     0.00153126     0.00364073    -0.05831064
    -0.00290372    -0.00515763     0.06602540
     0.01688212     0.00127766    -0.00822828
     0.01792473    -0.00304690     0.00399466
    -0.01603383     0.00370974     0.00457166
    -0.01740055    -0.00042360    -0.00805280

 h vector - derivative coupling
     0.00035567     0.00190326    -0.03144348
    -0.00122844    -0.00172815     0.02574742
     0.01638832    -0.00619596     0.00187181
     0.01911211     0.00152640     0.00041972
    -0.01836713    -0.00125006     0.00077986
    -0.01626053     0.00574450     0.00262466

 G vector - GDV
     0.00148864     0.00343492    -0.05491953
    -0.00276818    -0.00496170     0.06315921
     0.01518075     0.00188343    -0.00837293
     0.01594920    -0.00318278     0.00393366
    -0.01414114     0.00381508     0.00447227
    -0.01570927    -0.00098896    -0.00827268

 H vector - DCV - non-adiabatic coupling
     0.00203559     0.00908057    -0.14928726
    -0.00608138    -0.00898218     0.12951845
     0.07243147    -0.02433534     0.00423040
     0.08376800     0.00490766     0.00327291
    -0.08002824    -0.00353581     0.00494658
    -0.07212544     0.02286509     0.00731892
--------------------------------------------------


--------------------------------------------------------------------------------
DFTB+ running times                          cpu [s]             wall clock [s]
--------------------------------------------------------------------------------
SCC                                    +     0.03  ( 70.5%)      0.03  ( 65.1%)
Post-SCC processing                    +     0.01  ( 26.2%)      0.01  ( 25.6%)
  Force calculation                          0.01  ( 25.7%)      0.01  ( 23.3%)
--------------------------------------------------------------------------------
Missing                                +     0.00  (  3.3%)      0.00  (  9.3%)
Total                                  =     0.04  (100.0%)      0.04  (100.0%)
--------------------------------------------------------------------------------
