|===============================================================================
|
|  DFTB+ release 20.1
|
|  Copyright (C) 2006 - 2020  DFTB+ developers group
|
|===============================================================================
|
|  When publishing results obtained with DFTB+, please cite the following
|  reference:
|
|  * DFTB+, a software package for efficient approximate density functional
|    theory based atomistic simulations, J. Chem. Phys. 152, 124101 (2020).
|    [doi: 10.1063/1.5143190]
|
|  You should also cite additional publications crediting the parametrization
|  data you use. Please consult the documentation of the SK-files for the
|  references.
|
|===============================================================================

Reading input file 'dftb_in.hsd'
Parser version: 8

--------------------------------------------------------------------------------
Reading SK-files:
Done.


Processed input in HSD format written to 'dftb_pin.hsd'

Starting initialization...
--------------------------------------------------------------------------------
OpenMP threads:              1
Chosen random seed:          507635029
Mode:                        Static calculation
Self consistent charges:     Yes
SCC-tolerance:                 0.100000E-05
Max. scc iterations:                   1000
Shell resolved Hubbard:      No
Spin polarisation:           No
Nr. of up electrons:             6.000000
Nr. of down electrons:           6.000000
Periodic boundaries:         No
Electronic solver:           Relatively robust
Maximal SCC-cycles:                    1000
Initial charges:             Set automatically (system chrg:   0.100E+01)
Included shells:             C:  s, p
                             N:  s, p
                             H:  s
Spin coupling constants:     C   1(s)-1(s):  -0.455900E-01
                             C   1(s)-2(p):  -0.293000E-01
                             C   2(p)-1(s):  -0.293000E-01
                             C   2(p)-2(p):  -0.275500E-01
                             N   1(s)-1(s):  -0.468700E-01
                             N   1(s)-2(p):  -0.317000E-01
                             N   2(p)-1(s):  -0.317000E-01
                             N   2(p)-2(p):  -0.307200E-01
                             H   1(s)-1(s):  -0.792500E-01
Range separated hybrid:      Yes
  Screening parameter omega:   0.300000E+00
  Range separated algorithm:   MatrixBased
Extra options:
                             Mulliken analysis
                             Force calculation
Force type                   original
                             Eigenvector printing


REKS Calcuation:             Yes
SSR(2,2) Calcuation:         Yes
Energy Functional:           (PPS+OSS)/2
Number of Core Orbitals:                  5
Number of Active Orbitals:                2
Number of Basis:                         12
Number of States:                         2
State-Averaging Weight:          0.500000
                                 0.500000
State of Interest:                        1
Initial Guess:               Diagonalize H0 matrix
Newton-Raphson for FON opt:  Yes
NR max. Iterations:                      50
Level Shifting:              Yes
Shift Value:                     0.300000
W Scale Factor:              C  =    3.000000
                             N  =    3.000000
                             H  =    3.000000
Transition Dipole:           No
Gradient of Microstate:      No
CP-REKS Solver:              Preconditioned Conjugate-Gradient
CG max. Iterations:                     100
CG Tolerance:                  0.100000E-07
Memory for A and Hxc:        Direct Updating Without Saving
Non-Adiabatic Coupling:      Yes

--------------------------------------------------------------------------------

***  Geometry step: 0

  iSCC       reks energy        Diff energy         x_a       SCC error   
    1       -6.2601329176       0.0000000000     0.999014    1.17563009
    2       -6.2742271590      -0.0140942414     0.999628    0.11107016
    3       -6.2785685382      -0.0043413792     0.999802    0.05267864
    4       -6.2807257781      -0.0021572400     0.999874    0.02691923
    5       -6.2820335271      -0.0013077489     0.999908    0.01446661
    6       -6.2829219844      -0.0008884574     0.999926    0.00865151
    7       -6.2835571371      -0.0006351527     0.999937    0.00766698
    8       -6.2840167710      -0.0004596339     0.999944    0.00657153
    9       -6.2843474464      -0.0003306754     0.999948    0.00551969
   10       -6.2845824362      -0.0002349898     0.999952    0.00471454
   11       -6.2847472287      -0.0001647925     0.999954    0.00418054
   12       -6.2848614288      -0.0001142001     0.999955    0.00365557
   13       -6.2849398053      -0.0000783765     0.999956    0.00316209
   14       -6.2849931981      -0.0000533928     0.999957    0.00271213
   15       -6.2850293755      -0.0000361774     0.999958    0.00231057
   16       -6.2850537971      -0.0000244216     0.999958    0.00195780
   17       -6.2850702430      -0.0000164459     0.999958    0.00165151
   18       -6.2850813016      -0.0000110586     0.999958    0.00138797
   19       -6.2850887317      -0.0000074301     0.999958    0.00116282
   20       -6.2850937222      -0.0000049905     0.999958    0.00097160
   21       -6.2850970739      -0.0000033517     0.999959    0.00080994
   22       -6.2850993252      -0.0000022513     0.999959    0.00067384
   23       -6.2851008377      -0.0000015125     0.999959    0.00055963
   24       -6.2851018541      -0.0000010164     0.999959    0.00046408
   25       -6.2851025373      -0.0000006832     0.999959    0.00038432
   26       -6.2851029966      -0.0000004593     0.999959    0.00031791
   27       -6.2851033054      -0.0000003089     0.999959    0.00026270
   28       -6.2851035131      -0.0000002077     0.999959    0.00021689
   29       -6.2851036529      -0.0000001397     0.999959    0.00017892
   30       -6.2851037469      -0.0000000940     0.999959    0.00014750
   31       -6.2851038101      -0.0000000632     0.999958    0.00012152
   32       -6.2851038526      -0.0000000425     0.999958    0.00010007
   33       -6.2851038813      -0.0000000286     0.999958    0.00008236
   34       -6.2851039005      -0.0000000193     0.999958    0.00006776
   35       -6.2851039135      -0.0000000130     0.999958    0.00005573
   36       -6.2851039222      -0.0000000087     0.999958    0.00004582
   37       -6.2851039281      -0.0000000059     0.999958    0.00003766
   38       -6.2851039320      -0.0000000039     0.999958    0.00003095
   39       -6.2851039347      -0.0000000027     0.999958    0.00002542
   40       -6.2851039365      -0.0000000018     0.999958    0.00002088
   41       -6.2851039377      -0.0000000012     0.999958    0.00001715
   42       -6.2851039385      -0.0000000008     0.999958    0.00001408
   43       -6.2851039390      -0.0000000005     0.999958    0.00001156
   44       -6.2851039394      -0.0000000004     0.999958    0.00000949
   45       -6.2851039397      -0.0000000002     0.999958    0.00000779
   46       -6.2851039398      -0.0000000002     0.999958    0.00000640
   47       -6.2851039399      -0.0000000001     0.999958    0.00000525
   48       -6.2851039400      -0.0000000001     0.999958    0.00000431
   49       -6.2851039401      -0.0000000001     0.999958    0.00000354
   50       -6.2851039401      -0.0000000000     0.999958    0.00000290
   51       -6.2851039401      -0.0000000000     0.999958    0.00000238
   52       -6.2851039401      -0.0000000000     0.999958    0.00000195
   53       -6.2851039401      -0.0000000000     0.999958    0.00000160
   54       -6.2851039401      -0.0000000000     0.999958    0.00000132
   55       -6.2851039402      -0.0000000000     0.999958    0.00000108
   56       -6.2851039402      -0.0000000000     0.999958    0.00000089
  
--------------------------------------------------
 Final SA-REKS(2,2) energy:      -6.28510394
  
 State     Energy      FON(1)    FON(2)   Spin
  PPS   -6.41290313   1.999917  0.000083  0.00
  OSS   -6.15730475   1.000000  1.000000  0.00
 Trip   -6.23762451   1.000000  1.000000  1.00
--------------------------------------------------

 Lagrangian Wab:  -0.00489047 -0.00489028

--------------------------------------------------
 SSR: 2SI-2SA-REKS(2,2) Hamiltonian matrix
               PPS           OSS
   PPS    -6.41290313   -0.00687145
   OSS    -0.00687145   -6.15730475
--------------------------------------------------

----------------------------------------------------------------
 SSR: 2SI-2SA-REKS(2,2) states
                    E_n       C_{PPS}    C_{OSS}
 SSR state  1   -6.41308773  -0.999639  -0.026855
 SSR state  2   -6.15712015   0.026855  -0.999639
----------------------------------------------------------------

 unrelaxed SSR FONs for S0:  1.999196  0.000804

Total Energy:                       -6.4130877258 H         -174.5090 eV
Extrapolated to 0:                  -6.4130877258 H         -174.5090 eV

----------------------------------------------------------------------------------
 Solving CP-REKS equation for  1 state vector...
----------------------------------------------------------------------------------
  CG solver: Constructing Y initial guess
  CG solver: Iteration    1    eps =    0.000080682259
  CG solver: Iteration    2    eps =    0.000037963189
  CG solver: Iteration    3    eps =    0.000001723474
  CG solver: Iteration    4    eps =    0.000000524416
  CG solver: Iteration    5    eps =    0.000000006920
  Convergence reached in CG solver after    5 iterations
  CG solver: Calculating converged R, Z, Q2 matrix
----------------------------------------------------------------------------------

----------------------------------------------------------------------------------
 Solving CP-REKS equation for SI between  1 and  2 state vectors...
----------------------------------------------------------------------------------
  CG solver: Constructing Y initial guess
  CG solver: Iteration    1    eps =    0.001685946488
  CG solver: Iteration    2    eps =    0.002110309176
  CG solver: Iteration    3    eps =    0.000368579445
  CG solver: Iteration    4    eps =    0.000004102824
  CG solver: Iteration    5    eps =    0.000000562746
  CG solver: Iteration    6    eps =    0.000000009610
  Convergence reached in CG solver after    6 iterations
  CG solver: Calculating converged R, Z, Q2 matrix
----------------------------------------------------------------------------------

--------------------------------------------------
 Gradient Information
--------------------------------------------------
           1 st state (SSR)
     0.00103224    -0.00065196    -0.00600501
    -0.00246870    -0.00275689     0.00838812
     0.01148592    -0.00624668     0.00400726
     0.01180527     0.00400486    -0.00446206
    -0.01016155    -0.00037315    -0.00696070
    -0.01169317     0.00602383     0.00503239

           2 st state (SSR)
    -0.00176840    -0.00520836     0.10037458
     0.00286185     0.00204269    -0.11285451
    -0.00887273     0.00410553     0.01973302
    -0.00891297    -0.00313006    -0.01264380
     0.00790566     0.00829861    -0.01441534
     0.00878658    -0.00610841     0.01980605
--------------------------------------------------
 Coupling Information
--------------------------------------------------
 between  1 and  2 states
--------------------------------------------------
 g vector - difference gradient
     0.00141805     0.00230079    -0.05387808
    -0.00270418    -0.00239163     0.06116700
     0.01072909    -0.00508526    -0.00782536
     0.01098449     0.00351215     0.00413054
    -0.00963619    -0.00431441     0.00377410
    -0.01079126     0.00597836    -0.00736819

 h vector - derivative coupling
    -0.00029223    -0.00035896     0.01137218
     0.00065198    -0.00021626    -0.00852040
    -0.00995138    -0.00182865    -0.00090908
    -0.01135275     0.00112451    -0.00062780
     0.01096459    -0.00051586    -0.00076993
     0.00997980     0.00179523    -0.00054497

 G vector - GDV
     0.00140032     0.00227820    -0.05318980
    -0.00266528    -0.00239979     0.06062131
     0.01017932    -0.00517611    -0.00786288
     0.01035912     0.00356746     0.00409087
    -0.00903360    -0.00433588     0.00372732
    -0.01023988     0.00606612    -0.00738683

 H vector - DCV - non-adiabatic coupling
    -0.00143746    -0.00188296     0.05566521
     0.00311065    -0.00034202    -0.04606900
    -0.04107190    -0.00606713    -0.00190502
    -0.04659237     0.00365015    -0.00331549
     0.04479528    -0.00110745    -0.00379522
     0.04119580     0.00574941    -0.00058047
--------------------------------------------------


--------------------------------------------------------------------------------
DFTB+ running times                          cpu [s]             wall clock [s]
--------------------------------------------------------------------------------
SCC                                    +     0.03  ( 70.5%)      0.03  ( 66.7%)
Post-SCC processing                    +     0.01  ( 25.4%)      0.01  ( 22.2%)
--------------------------------------------------------------------------------
Missing                                +     0.00  (  4.1%)      0.01  ( 11.1%)
Total                                  =     0.04  (100.0%)      0.05  (100.0%)
--------------------------------------------------------------------------------
