     6
  Step:     0            Position(A)                                  Velocity(au)
C        -0.03777770     0.01765739     0.01422644    -0.00005995     0.00004021     0.00018783
N        -0.04500345    -0.04845195     1.30247180    -0.00008196     0.00002271    -0.00013912
H         0.93331554    -0.02193948    -0.55123002     0.00000955    -0.00013332    -0.00008659
H         0.85565973    -0.17112440     1.88488710     0.00049599    -0.00028978    -0.00008977
H        -0.91999218    -0.08150022     1.80423291     0.00052029     0.00002122    -0.00029504
H        -1.00637575     0.06768461    -0.51497826     0.00082746    -0.00039276     0.00016655
     6
  Step:     1            Position(A)                                  Velocity(au)
C        -0.03808957     0.01788210     0.01513363    -0.00005357     0.00004202     0.00014345
N        -0.04540414    -0.04833361     1.30183406    -0.00006386     0.00002052    -0.00009367
H         0.93327048    -0.02265962    -0.55180434    -0.00002656    -0.00013009    -0.00012249
H         0.85792660    -0.17266924     1.88416715     0.00032977    -0.00027486    -0.00017551
H        -0.91739498    -0.08141899     1.80288519     0.00042301     0.00000826    -0.00019367
H        -1.00191059     0.06554680    -0.51428368     0.00079955    -0.00038913     0.00008401
     6
  Step:     2            Position(A)                                  Velocity(au)
C        -0.03836354     0.01811688     0.01579512    -0.00004621     0.00004395     0.00009832
N        -0.04570174    -0.04822753     1.30144751    -0.00004455     0.00001827    -0.00004752
H         0.93302515    -0.02336198    -0.55256942    -0.00006346    -0.00012699    -0.00015672
H         0.85926578    -0.17412998     1.88296793     0.00015862    -0.00025959    -0.00026423
H        -0.91536657    -0.08140987     1.80211510     0.00031424    -0.00000509    -0.00008492
H        -0.99763268     0.06342947    -0.51405956     0.00076029    -0.00038582    -0.00000531
     6
  Step:     3            Position(A)                                  Velocity(au)
C        -0.03859459     0.01836233     0.01620805    -0.00003800     0.00004599     0.00005278
N        -0.04589092    -0.04813393     1.30131479    -0.00002445     0.00001600    -0.00000098
H         0.93257701    -0.02404736    -0.55351691    -0.00010060    -0.00012406    -0.00018967
H         0.85965994    -0.17550604     1.88127972    -0.00001441    -0.00024445    -0.00035381
H        -0.91396101    -0.08147462     1.80195721     0.00019711    -0.00001872     0.00002926
H        -0.99360227     0.06133058    -0.51434173     0.00071042    -0.00038297    -0.00010112
     6
  Step:     4            Position(A)                                  Velocity(au)
C        -0.03877847     0.01861904     0.01637153    -0.00002906     0.00004813     0.00000719
N        -0.04596874    -0.04805282     1.30143685    -0.00000402     0.00001374     0.00004566
H         0.93192660    -0.02471671    -0.55464062    -0.00013742    -0.00012130    -0.00022174
H         0.85910840    -0.17679939     1.87910433    -0.00018629    -0.00022988    -0.00044213
H        -0.91321410    -0.08161429     1.80243467     0.00007505    -0.00003249     0.00014672
H        -0.98987482     0.05924736    -0.51516381     0.00065087    -0.00038069    -0.00020295
     6
  Step:     5            Position(A)                                  Velocity(au)
C        -0.03891175     0.01888754     0.01628651    -0.00001958     0.00005037    -0.00003813
N        -0.04593482    -0.04798400     1.30181304     0.00001627     0.00001153     0.00009210
H         0.93107745    -0.02537104    -0.55593657    -0.00017338    -0.00011873    -0.00025331
H         0.85762715    -0.17801457     1.87645516    -0.00035390    -0.00021637    -0.00052702
H        -0.91314206    -0.08182920     1.80355826    -0.00004830    -0.00004627     0.00026515
H        -0.98649990     0.05717642    -0.51655641     0.00058277    -0.00037907    -0.00031019
     6
  Step:     6            Position(A)                                  Velocity(au)
C        -0.03899195     0.01916832     0.01595569    -0.00000971     0.00005270    -0.00008286
N        -0.04579135    -0.04792704     1.30244115     0.00003593     0.00000942     0.00013804
H         0.93003605    -0.02601141    -0.55740286    -0.00020790    -0.00011634    -0.00028475
H         0.85524929    -0.17915878     1.87335753    -0.00051399    -0.00020440    -0.00060619
H        -0.91374080    -0.08211880     1.80532597    -0.00016920    -0.00005988     0.00038216
H        -0.98352009     0.05511381    -0.51854626     0.00050746    -0.00037819    -0.00042201
     6
  Step:     7            Position(A)                                  Velocity(au)
C        -0.03901758     0.01946180     0.01538351     0.00000034     0.00005509    -0.00012667
N        -0.04554325    -0.04788130     1.30331732     0.00005447     0.00000745     0.00018315
H         0.92881185    -0.02663883    -0.55903957    -0.00024045    -0.00011412    -0.00031637
H         0.85202607    -0.18024201     1.86984933    -0.00066302    -0.00019452    -0.00067723
H        -0.91498593    -0.08248172     1.80772279    -0.00028395    -0.00007317     0.00049536
H        -0.98096999     0.05305522    -0.52115517     0.00042648    -0.00037808    -0.00053738
     6
  Step:     8            Position(A)                                  Velocity(au)
C        -0.03898826     0.01976828     0.01457611     0.00001037     0.00005752    -0.00016922
N        -0.04519815    -0.04784588     1.30443585     0.00007135     0.00000567     0.00022705
H         0.92741725    -0.02725426    -0.56084846    -0.00027047    -0.00011204    -0.00034844
H         0.84802826    -0.18127727     1.86598176    -0.00079720    -0.00018728    -0.00073756
H        -0.91683333    -0.08291565     1.81072095    -0.00038898    -0.00008595     0.00060239
H        -0.97887523     0.05099608    -0.52439887     0.00034158    -0.00037878    -0.00065503
     6
  Step:     9            Position(A)                                  Velocity(au)
C        -0.03890474     0.02008797     0.01354135     0.00002015     0.00005997    -0.00021016
N        -0.04476650    -0.04781961     1.30578902     0.00008607     0.00000412     0.00026931
H         0.92586751    -0.02785854    -0.56283276    -0.00029739    -0.00011009    -0.00038118
H         0.84334764    -0.18228079     1.86182013    -0.00091246    -0.00018332    -0.00078449
H        -0.91922048    -0.08341740     1.81428052    -0.00048102    -0.00009806     0.00070105
H        -0.97725150     0.04893174    -0.52828597     0.00025466    -0.00038027    -0.00077350
     6
  Step:    10            Position(A)                                  Velocity(au)
C        -0.03876896     0.02042089     0.01228895     0.00002947     0.00006240    -0.00024914
N        -0.04426147    -0.04780103     1.30736677     0.00009812     0.00000287     0.00030948
H         0.92418075    -0.02845235    -0.56499676    -0.00032071    -0.00010823    -0.00041472
H         0.83809815    -0.18327227     1.85744433    -0.00100456    -0.00018327    -0.00081527
H        -0.92206825    -0.08398287     1.81835039    -0.00055719    -0.00010934     0.00078935
H        -0.97610385     0.04685763    -0.53281680     0.00016775    -0.00038252    -0.00089113
     6
  Step:    11            Position(A)                                  Velocity(au)
C        -0.03858407     0.02076693     0.01083039     0.00003810     0.00006478    -0.00028580
N        -0.04369885    -0.04778835     1.30915652     0.00010703     0.00000198     0.00034704
H         0.92237775    -0.02903620    -0.56734546    -0.00033995    -0.00010642    -0.00044915
H         0.83241681    -0.18427502     1.85294903    -0.00106925    -0.00018782    -0.00082723
H        -0.92528343    -0.08460710     1.82286962    -0.00061513    -0.00011961     0.00086559
H        -0.97542614     0.04476941    -0.53798251     0.00008298    -0.00038548    -0.00100609
     6
  Step:    12            Position(A)                                  Velocity(au)
C        -0.03835436     0.02112575     0.00917906     0.00004583     0.00006706    -0.00031978
N        -0.04309687    -0.04777946     1.31114301     0.00011238     0.00000151     0.00038148
H         0.92048167    -0.02961038    -0.56988411    -0.00035468    -0.00010464    -0.00048445
H         0.82646327    -0.18531604     1.84844295    -0.00110254    -0.00019762    -0.00081796
H        -0.92876171    -0.08528435     1.82776916    -0.00065309    -0.00012874     0.00092843
H        -0.97520088     0.04266310    -0.54376446     0.00000245    -0.00038906    -0.00111652
     6
  Step:    13            Position(A)                                  Velocity(au)
C        -0.03808526     0.02149681     0.00735010     0.00005247     0.00006922    -0.00035077
N        -0.04247579    -0.04777190     1.31330824     0.00011385     0.00000152     0.00041230
H         0.91851769    -0.03017497    -0.57261785    -0.00036460    -0.00010283    -0.00052056
H         0.82041757    -0.18642577     1.84404703    -0.00110106    -0.00021326    -0.00078550
H        -0.93239112    -0.08600820     1.83297393    -0.00066999    -0.00013662     0.00097696
H        -0.97539943     0.04053521    -0.55013391    -0.00007181    -0.00039317    -0.00122055
     6
  Step:    14            Position(A)                                  Velocity(au)
C        -0.03778310     0.02187937     0.00536034     0.00005786     0.00007122    -0.00037847
N        -0.04185739    -0.04776294     1.31563164     0.00011123     0.00000205     0.00043908
H         0.91651243    -0.03072980    -0.57555125    -0.00036951    -0.00010095    -0.00055733
H         0.81447641    -0.18763770     1.83989143    -0.00106235    -0.00023521    -0.00072862
H        -0.93605571    -0.08677170     1.83840505    -0.00066549    -0.00014317     0.00101073
H        -0.97598268     0.03838280    -0.55705222    -0.00013798    -0.00039771    -0.00131641
     6
  Step:    15            Position(A)                                  Velocity(au)
C        -0.03745503     0.02227249     0.00322801     0.00006189     0.00007302    -0.00040266
N        -0.04126428    -0.04774957     1.31809042     0.00010445     0.00000315     0.00046145
H         0.91449325    -0.03127448    -0.57868794    -0.00036936    -0.00009898    -0.00059456
H         0.80884707    -0.18898752     1.83611137    -0.00098532    -0.00026377    -0.00064695
H        -0.93963921    -0.08756753     1.84398225    -0.00063987    -0.00014834     0.00102972
H        -0.97690218     0.03620358    -0.56447151    -0.00019446    -0.00040258    -0.00140252
     6
  Step:    16            Position(A)                                  Velocity(au)
C        -0.03710871     0.02267504     0.00097250     0.00006447     0.00007458    -0.00042317
N        -0.04071914    -0.04772866     1.32066015     0.00009360     0.00000482     0.00047919
H         0.91248748    -0.03180836    -0.58203026    -0.00036425    -0.00009685    -0.00063198
H         0.80373912    -0.19051202     1.83284144    -0.00087056    -0.00029899    -0.00054129
H        -0.94302850    -0.08838822     1.84962611    -0.00059409    -0.00015213     0.00103434
H        -0.97810171     0.03399583    -0.57233579    -0.00024001    -0.00040767    -0.00147756
     6
  Step:    17            Position(A)                                  Velocity(au)
C        -0.03675211     0.02308572    -0.00138607     0.00006558     0.00007590    -0.00043991
N        -0.04024371    -0.04769701     1.32331541     0.00007894     0.00000707     0.00049222
H         0.91052159    -0.03233055    -0.58557891    -0.00035444    -0.00009454    -0.00066929
H         0.79935473    -0.19224757     1.83020932    -0.00072051    -0.00034061    -0.00041359
H        -0.94611699    -0.08922627     1.85526038    -0.00052966    -0.00015455     0.00102540
H        -0.97951913     0.03175848    -0.58058240    -0.00027375    -0.00041288    -0.00154050
     6
  Step:    18            Position(A)                                  Velocity(au)
C        -0.03639323     0.02350313    -0.00382718     0.00006524     0.00007694    -0.00045285
N        -0.03985790    -0.04765150     1.32603057     0.00006090     0.00000987     0.00050057
H         0.90862034    -0.03283990    -0.58933267    -0.00034032    -0.00009200    -0.00070611
H         0.79587795    -0.19422833     1.82832895    -0.00053957    -0.00038806    -0.00026704
H        -0.94880747    -0.09007440     1.86081392    -0.00044858    -0.00015566     0.00100405
H        -0.98108850     0.02949100    -0.58914368    -0.00029521    -0.00041813    -0.00159063
     6
  Step:    19            Position(A)                                  Velocity(au)
C        -0.03603983     0.02392573    -0.00633025     0.00006352     0.00007769    -0.00046203
N        -0.03957885    -0.04758926     1.32878051     0.00004008     0.00001315     0.00050442
H         0.90680600    -0.03333499    -0.59328811    -0.00032244    -0.00008917    -0.00074202
H         0.79346376    -0.19648436     1.82729388    -0.00033407    -0.00044038    -0.00010597
H        -0.95101452    -0.09092570     1.86622237    -0.00035320    -0.00015554     0.00097165
H        -0.98274213     0.02719343    -0.59794863    -0.00030425    -0.00042331    -0.00162751
     6
  Step:    20            Position(A)                                  Velocity(au)
C        -0.03569925     0.02435190    -0.00887495     0.00006052     0.00007814    -0.00046753
N        -0.03942001    -0.04750781     1.33154136     0.00001722     0.00001684     0.00050405
H         0.90509770    -0.03381410    -0.59743928    -0.00030141    -0.00008600    -0.00077652
H         0.79222819    -0.19903957     1.82717124    -0.00011190    -0.00049628     0.00006434
H        -0.95266623    -0.09177373     1.87142933    -0.00024615    -0.00015430     0.00092979
H        -0.98441243     0.02486631    -0.60692440    -0.00030107    -0.00042833    -0.00165095
     6
  Step:    21            Position(A)                                  Velocity(au)
C        -0.03537820     0.02477994    -0.01144146     0.00005636     0.00007826    -0.00046944
N        -0.03939057    -0.04740520     1.33429103    -0.00000685     0.00002081     0.00049984
H         0.90351090    -0.03427520    -0.60177739    -0.00027794    -0.00008243    -0.00080907
H         0.79224044    -0.20190996     1.82799731     0.00011788    -0.00055416     0.00023798
H        -0.95370553    -0.09261263     1.87638722    -0.00013024    -0.00015205     0.00088011
H        -0.98603353     0.02251071    -0.61599754    -0.00028614    -0.00043310    -0.00166094
     6
  Step:    22            Position(A)                                  Velocity(au)
C        -0.03508263     0.02520811    -0.01401066     0.00005120     0.00007806    -0.00046792
N        -0.03949498    -0.04728010     1.33700958    -0.00003126     0.00002496     0.00049218
H         0.90205701    -0.03471592    -0.60629054    -0.00025280    -0.00007840    -0.00083907
H         0.79351782    -0.20510211     1.82977474     0.00034560    -0.00061220     0.00040872
H        -0.95409103    -0.09343721     1.88105780    -0.00000842    -0.00014892     0.00082438
H        -0.98754277     0.02012823    -0.62509506    -0.00026018    -0.00043750    -0.00165765
     6
  Step:    23            Position(A)                                  Velocity(au)
C        -0.03481763     0.02563458    -0.01656420     0.00004638     0.00007927    -0.00051152
N        -0.03973277    -0.04713190     1.33967934    -0.00005605     0.00002868     0.00051823
H         0.90074323    -0.03513353    -0.61096342    -0.00025048    -0.00001058    -0.00082031
H         0.79602407    -0.20861225     1.83247189     0.00054162    -0.00074169     0.00054855
H        -0.95379772    -0.09424297     1.88541245     0.00013548    -0.00008773     0.00076257
H        -0.98888199     0.01772102    -0.63414530    -0.00020045    -0.00050294    -0.00159698
     6
  Step:    24            Position(A)                                  Velocity(au)
C        -0.03457448     0.02607662    -0.01961531     0.00004164     0.00008218    -0.00060521
N        -0.04010907    -0.04696589     1.34268779    -0.00008011     0.00003130     0.00058266
H         0.89931249    -0.03483188    -0.61527863    -0.00027230     0.00010090    -0.00074899
H         0.79945229    -0.21322870     1.83578514     0.00069565    -0.00091706     0.00065013
H        -0.95260654    -0.09439845     1.88941327     0.00029959     0.00001166     0.00068940
H        -0.98973904     0.01461755    -0.64259306    -0.00010597    -0.00060962    -0.00147558
     6
  Step:    25            Position(A)                                  Velocity(au)
C        -0.03436083     0.02653598    -0.02320281     0.00003569     0.00008499    -0.00069987
N        -0.04061151    -0.04678852     1.34607059    -0.00010147     0.00003310     0.00064841
H         0.89775629    -0.03402675    -0.61917918    -0.00029263     0.00018553    -0.00067050
H         0.80365482    -0.21867159     1.83960323     0.00082050    -0.00105452     0.00073102
H        -0.95051147    -0.09411511     1.89297458     0.00045941     0.00008466     0.00060677
H        -0.99004435     0.01103403    -0.65033124    -0.00000254    -0.00068829    -0.00133807
     6
  Step:    26            Position(A)                                  Velocity(au)
C        -0.03418234     0.02701040    -0.02730427     0.00002879     0.00008723    -0.00078789
N        -0.04122386    -0.04660228     1.34981141    -0.00011939     0.00003445     0.00070912
H         0.89609753    -0.03279358    -0.62264497    -0.00030733     0.00025843    -0.00058947
H         0.80846651    -0.22481399     1.84381629     0.00091245    -0.00116962     0.00079028
H        -0.94755931    -0.09346840     1.89607945     0.00060669     0.00014592     0.00052338
H        -0.98976700     0.00705577    -0.65729340     0.00010416    -0.00075286    -0.00118977
     6
  Step:    27            Position(A)                                  Velocity(au)
C        -0.03404387     0.02749631    -0.03187671     0.00002110     0.00008868    -0.00086592
N        -0.04192587    -0.04640924     1.35387733    -0.00013317     0.00003540     0.00076212
H         0.89437291    -0.03118166    -0.62566863    -0.00031418     0.00032274    -0.00050808
H         0.81369992    -0.23154795     1.84830338     0.00096810    -0.00126402     0.00082617
H        -0.94383239    -0.09250863     1.89873645     0.00073500     0.00019852     0.00044346
H        -0.98889760     0.00274581    -0.66342935     0.00021018    -0.00080587    -0.00103378
     6
  Step:    28            Position(A)                                  Velocity(au)
C        -0.03394945     0.02798923    -0.03686198     0.00001280     0.00008920    -0.00093140
N        -0.04269372    -0.04621150     1.35822339    -0.00014225     0.00003594     0.00080539
H         0.89262970    -0.02923131    -0.62825298    -0.00031153     0.00037946    -0.00042828
H         0.81915203    -0.23876576     1.85293532     0.00098570    -0.00133734     0.00083785
H        -0.93944669    -0.09127726     1.90097421     0.00083835     0.00024349     0.00037059
H        -0.98744708    -0.00183913    -0.66870395     0.00031164    -0.00084794    -0.00087336
     6
  Step:    29            Position(A)                                  Velocity(au)
C        -0.03390214     0.02848399    -0.04218936     0.00000411     0.00008872    -0.00098247
N        -0.04350084    -0.04601128     1.36279469    -0.00014627     0.00003605     0.00083747
H         0.89092357    -0.02698018    -0.63041063    -0.00029827     0.00042890    -0.00035198
H         0.82461370    -0.24635519     1.85758024     0.00096553    -0.00138902     0.00082570
H        -0.93455002    -0.08981270     1.90283968     0.00091165     0.00028122     0.00030796
H        -0.98544712    -0.00664268    -0.67309936     0.00040477    -0.00087918    -0.00071217
     6
  Step:    30            Position(A)                                  Velocity(au)
C        -0.03390381     0.02897503    -0.04777875    -0.00000474     0.00008722    -0.00101813
N        -0.04431903    -0.04581089     1.36752894    -0.00014517     0.00003575     0.00085761
H         0.88931548    -0.02446562    -0.63216400    -0.00027396     0.00047116    -0.00028101
H         0.82988056    -0.25419994     1.86211009     0.00091011    -0.00141916     0.00079147
H        -0.92931682    -0.08815250     1.90439614     0.00095131     0.00031192     0.00025828
H        -0.98294944    -0.01160816    -0.67661724     0.00048624    -0.00089992    -0.00055421
     6
  Step:    31            Position(A)                                  Velocity(au)
C        -0.03395496     0.02945684    -0.05354517    -0.00001347     0.00008481    -0.00103854
N        -0.04511998    -0.04561259     1.37236011    -0.00013917     0.00003506     0.00086599
H         0.88786797    -0.02172508    -0.63354493    -0.00023890     0.00050656    -0.00021701
H         0.83476476    -0.26218400     1.86640805     0.00082408    -0.00142914     0.00073833
H        -0.92393947    -0.08633363     1.90572041     0.00095586     0.00033598     0.00022356
H        -0.98002380    -0.01668001    -0.67928081     0.00055344    -0.00091104    -0.00040358
     6
  Step:    32            Position(A)                                  Velocity(au)
C        -0.03405466     0.02992445    -0.05940514    -0.00002187     0.00008165    -0.00104525
N        -0.04587701    -0.04541844     1.37722361    -0.00012882     0.00003407     0.00086390
H         0.88664097    -0.01879472    -0.63459346    -0.00019410     0.00053591    -0.00016125
H         0.83910609    -0.27019913     1.87037569     0.00071374    -0.00142200     0.00067054
H        -0.91861605    -0.08439126     1.90689883     0.00092626     0.00035412     0.00020501
H        -0.97675373    -0.02180719    -0.68113524     0.00060485    -0.00091432    -0.00026404
     6
  Step:    33            Position(A)                                  Velocity(au)
C        -0.03420058     0.03037384    -0.06528393    -0.00002974     0.00007801    -0.00104104
N        -0.04656674    -0.04522999     1.38206220    -0.00011490     0.00003289     0.00085363
H         0.88568812    -0.01570654    -0.63535587    -0.00014099     0.00056058    -0.00011445
H         0.84278046    -0.27815395     1.87393857     0.00058611    -0.00140224     0.00059289
H        -0.91353703    -0.08235668     1.90802279     0.00086576     0.00036748     0.00020297
H        -0.97323097    -0.02694840    -0.68224613     0.00064021    -0.00091237    -0.00013851
     6
  Step:    34            Position(A)                                  Velocity(au)
C        -0.03438939     0.03080245    -0.07112236    -0.00003698     0.00007416    -0.00102948
N        -0.04717027    -0.04504823     1.38683141    -0.00009827     0.00003165     0.00083805
H         0.88505407    -0.01248525    -0.63588166    -0.00008113     0.00058242    -0.00007674
H         0.84570291    -0.28598176     1.87704888     0.00044783    -0.00137518     0.00051004
H        -0.90887174    -0.08025520     1.90918327     0.00077912     0.00037751     0.00021694
H        -0.96954795    -0.03207619    -0.68269423     0.00066036    -0.00090828    -0.00002866
     6
  Step:    35            Position(A)                                  Velocity(au)
C        -0.03461713     0.03120928    -0.07688096    -0.00004354     0.00007037    -0.00101408
N        -0.04767372    -0.04487342     1.39150277    -0.00007972     0.00003047     0.00081999
H         0.88477415    -0.00914559    -0.63622036    -0.00001585     0.00060342    -0.00004768
H         0.84782528    -0.29364525     1.87968419     0.00030430    -0.00134595     0.00042578
H        -0.90476025    -0.07810404     1.91046660     0.00067152     0.00038577     0.00024585
H        -0.96579211    -0.03718010    -0.68256903     0.00066657    -0.00090508     0.00006505
     6
  Step:    36            Position(A)                                  Velocity(au)
C        -0.03487956     0.03159471    -0.08253952    -0.00004940     0.00006680    -0.00099753
N        -0.04806777    -0.04470520     1.39606338    -0.00005988     0.00002942     0.00080159
H         0.88487559    -0.00569152    -0.63641853     0.00005386     0.00062528    -0.00002646
H         0.84912890    -0.30113531     1.88184265     0.00015927    -0.00131852     0.00034275
H        -0.90131133    -0.07591192     1.91195126     0.00054760     0.00039359     0.00028819
H        -0.96204320    -0.04226623    -0.68196186     0.00065998    -0.00090516     0.00014304
     6
  Step:    37            Position(A)                                  Velocity(au)
C        -0.03517232     0.03196006    -0.08809267    -0.00005451     0.00006353    -0.00098131
N        -0.04834673    -0.04454270     1.40051219    -0.00003923     0.00002858     0.00078401
H         0.88537949    -0.00211776    -0.63651777     0.00012722     0.00064910    -0.00001206
H         0.84961539    -0.30846466     1.88353649     0.00001521    -0.00129523     0.00026251
H        -0.89860556    -0.07368027     1.91370571     0.00041127     0.00040188     0.00034202
H        -0.95837430    -0.04735365    -0.68096128     0.00064100    -0.00090988     0.00020605
     6
  Step:    38            Position(A)                                  Velocity(au)
C        -0.03549078     0.03230709    -0.09354305    -0.00005878     0.00006057    -0.00096572
N        -0.04850767    -0.04438475     1.40485456    -0.00001816     0.00002795     0.00076750
H         0.88630207     0.00158689    -0.63655375     0.00020339     0.00067529    -0.00000343
H         0.84929948    -0.31565881     1.88478617    -0.00012605    -0.00127692     0.00018598
H        -0.89669974    -0.07140557     1.91578631     0.00026607     0.00041109     0.00040493
H        -0.95485562    -0.05246881    -0.67965135     0.00060937    -0.00091961     0.00025473
     6
  Step:    39            Position(A)                                  Velocity(au)
C        -0.03582980     0.03263757    -0.09889491    -0.00006206     0.00005786    -0.00095026
N        -0.04854988    -0.04423002     1.40909717     0.00000294     0.00002756     0.00075167
H         0.88765453     0.00543583    -0.63655613     0.00028128     0.00070370     0.00000044
H         0.84820541    -0.32274792     1.88561681    -0.00026273    -0.00126345     0.00011385
H        -0.89562941    -0.06908189     1.91823517     0.00011567     0.00042131     0.00047406
H        -0.95155808    -0.05764017    -0.67811198     0.00056447    -0.00093400     0.00028950
     6
  Step:    40            Position(A)                                  Velocity(au)
C        -0.03618354     0.03295297    -0.10414981    -0.00006421     0.00005536    -0.00093413
N        -0.04847485    -0.04407713     1.41324473     0.00002363     0.00002740     0.00073595
H         0.88944172     0.00944159    -0.63654886     0.00035946     0.00073386     0.00000051
H         0.84636684    -0.32976136     1.88605696    -0.00039278    -0.00125428     0.00004684
H        -0.89540868    -0.06670291     1.92107775    -0.00003575     0.00043240     0.00054611
H        -0.94855498    -0.06289408    -0.67642000     0.00050581    -0.00095234     0.00031068
     6
  Step:    41            Position(A)                                  Velocity(au)
C        -0.03654533     0.03325447    -0.10930490    -0.00006506     0.00005300    -0.00091653
N        -0.04828656    -0.04392466     1.41729865     0.00004340     0.00002749     0.00071973
H         0.89166035     0.01361402    -0.63655039     0.00043618     0.00076512    -0.00000225
H         0.84382817    -0.33672576     1.88613876    -0.00051389    -0.00124893    -0.00001422
H        -0.89602781    -0.06426315     1.92432111    -0.00018347     0.00044412     0.00061759
H        -0.94592133    -0.06825309    -0.67464973     0.00043329    -0.00097383     0.00031865
     6
  Step:    42            Position(A)                                  Velocity(au)
C        -0.03690779     0.03354299    -0.11435298    -0.00006451     0.00005075    -0.00089685
N        -0.04799170    -0.04377110     1.42125710     0.00006173     0.00002785     0.00070258
H         0.89429747     0.01795923    -0.63657392     0.00050956     0.00079686    -0.00000696
H         0.84064597    -0.34366496     1.88589867    -0.00062360    -0.00124710    -0.00006839
H        -0.89745112    -0.06175872     1.92795303    -0.00032258     0.00045623     0.00068502
H        -0.94373144    -0.07373518    -0.67287268     0.00034749    -0.00099771     0.00031398
     6
  Step:    43            Position(A)                                  Velocity(au)
C        -0.03726307     0.03381916    -0.11928358    -0.00006251     0.00004858    -0.00087475
N        -0.04759974    -0.04361480     1.42511581     0.00007810     0.00002851     0.00068423
H         0.89732982     0.02248018    -0.63662782     0.00057767     0.00082856    -0.00001277
H         0.83688976    -0.35060143     1.88537786    -0.00071954    -0.00124881    -0.00011475
H        -0.89961696    -0.05918697     1.93194283    -0.00044836     0.00046851     0.00074520
H        -0.94205502    -0.07935393    -0.67115623     0.00024977    -0.00102328     0.00029763
     6
  Step:    44            Position(A)                                  Velocity(au)
C        -0.03760321     0.03408343    -0.12408429    -0.00005909     0.00004646    -0.00085010
N        -0.04712284    -0.04345393     1.42886893     0.00009206     0.00002951     0.00066456
H         0.90072382     0.02717663    -0.63671593     0.00063871     0.00085972    -0.00001888
H         0.83264137    -0.35755746     1.88462217    -0.00079960    -0.00125423    -0.00015247
H        -0.90243891    -0.05654674     1.93624306    -0.00055654     0.00048073     0.00079537
H        -0.94095288    -0.08511884    -0.66956165     0.00014220    -0.00104993     0.00027091
     6