     6
  Step:   120            Position(A)                                  Velocity(au)
C        -0.03287572     0.01395231    -0.04974208    -0.00001160    -0.00000085     0.00065666
N        -0.03345955    -0.02680157     1.36861996     0.00006644    -0.00002176    -0.00056539
H         0.81676633     0.41345883    -0.67726375    -0.00081304     0.00116859     0.00053180
H         0.57739447    -0.74410578     1.83802216    -0.00143911    -0.00086969    -0.00076296
H        -0.85430782     0.27951636     1.95059303     0.00058858     0.00142619    -0.00015671
H        -0.89607173    -0.41246583    -0.64541243     0.00087856    -0.00141261     0.00041995
