     6
  Step:   120            Position(A)                                  Velocity(au)
C        -0.05671625     0.08229226    -0.00186077    -0.00014903     0.00005385    -0.00027940
N        -0.03431532    -0.04983166     1.33039899     0.00006796    -0.00010844     0.00014299
H         0.88318258     0.06806166    -0.65732250     0.00046432     0.00130926     0.00056385
H         0.71604582    -0.62567056     1.79444411    -0.00071543    -0.00089706     0.00008350
H        -0.88943800     0.23407226     1.86580416     0.00043874     0.00167560     0.00020999
H        -0.77003121    -0.63437065    -0.57640438     0.00064381    -0.00122248     0.00048503
