 Fermi distribution function

Calculation with static geometry


********************************************************************************
 iSCC Total electronic   Diff electronic      SCC error    
   10   -0.54133020E+01   -0.55955240E-13    0.96684152E-07
********************************************************************************

 Total charge:     1.00000000

 Atomic gross charges (e)
 Atom           Charge
    1       0.17939681
    2      -0.06129588
    3       0.17470911
    4       0.28007435
    5       0.27064395
    6       0.15647166

Nr. of electrons (up):     12.00000000
Atom populations (up)
 Atom       Population
    1       3.82060319
    2       5.06129588
    3       0.82529089
    4       0.71992565
    5       0.72935605
    6       0.84352834

l-shell populations (up)
 Atom Sh.   l       Population
    1   1   0       1.31757371
    1   2   1       2.50302949
    2   1   0       1.43646682
    2   2   1       3.62482906
    3   1   0       0.82529089
    4   1   0       0.71992565
    5   1   0       0.72935605
    6   1   0       0.84352834

Orbital populations (up)
 Atom Sh.   l   m       Population  Label
    1   1   0   0       1.31757371  s
    1   2   1  -1       0.59157260  p_y
    1   2   1   0       0.87017877  p_z
    1   2   1   1       1.04127812  p_x
    2   1   0   0       1.43646682  s
    2   2   1  -1       1.35087712  p_y
    2   2   1   0       1.09252436  p_z
    2   2   1   1       1.18142758  p_x
    3   1   0   0       0.82529089  s
    4   1   0   0       0.71992565  s
    5   1   0   0       0.72935605  s
    6   1   0   0       0.84352834  s

Fermi level:                        -0.4941155937 H          -13.4456 eV
Band energy:                        -8.9158099005 H         -242.6115 eV
TS:                                  0.0000000000 H            0.0000 eV
Band free energy (E-TS):            -8.9158099005 H         -242.6115 eV
Extrapolated E(0K):                 -8.9158099005 H         -242.6115 eV
Input / Output electrons (q):     12.0000000000     12.0000000000

Energy H0:                          -5.5460690826 H         -150.9162 eV
Energy SCC:                          0.1327670462 H            3.6128 eV
Total Electronic energy:            -5.4133020364 H         -147.3034 eV
Repulsive energy:                    0.1775584467 H            4.8316 eV
Total energy:                       -5.2357435897 H         -142.4718 eV
Extrapolated to 0:                  -5.2357435897 H         -142.4718 eV
Total Mermin free energy:           -5.2357435897 H         -142.4718 eV
Force related energy:               -5.2357435897 H         -142.4718 eV

SCC converged

Excitation Energy:                   0.1592099482 H            4.3323 eV

Total Forces
    1      0.002473152431     -0.006835364958      0.037419684652
    2     -0.000410494691     -0.002154042623     -0.040929727871
    3     -0.006047767162      0.009312864012      0.001361285016
    4     -0.015406724703     -0.001853966949      0.000571666019
    5      0.015282193207      0.004683382709     -0.002096228373
    6      0.004109640918     -0.003152872191      0.003673320557

Maximal derivative component:        0.409297E-01 au


