|===============================================================================
|
|  DFTB+ release 20.1
|
|  Copyright (C) 2006 - 2020  DFTB+ developers group
|
|===============================================================================
|
|  When publishing results obtained with DFTB+, please cite the following
|  reference:
|
|  * DFTB+, a software package for efficient approximate density functional
|    theory based atomistic simulations, J. Chem. Phys. 152, 124101 (2020).
|    [doi: 10.1063/1.5143190]
|
|  You should also cite additional publications crediting the parametrization
|  data you use. Please consult the documentation of the SK-files for the
|  references.
|
|===============================================================================

Reading input file 'dftb_in.hsd'
Parser version: 8

--------------------------------------------------------------------------------
Reading SK-files:
Done.


Processed input in HSD format written to 'dftb_pin.hsd'

Starting initialization...
--------------------------------------------------------------------------------
WARNING!
-> Excited state forces are not implemented yet for fractional occupations, kT=  0.3158E-02K
OpenMP threads:              1
Chosen random seed:          506584933
Mode:                        Static calculation
Self consistent charges:     Yes
SCC-tolerance:                 0.100000E-05
Max. scc iterations:                    100
Shell resolved Hubbard:      No
Spin polarisation:           No
Nr. of up electrons:             6.000000
Nr. of down electrons:           6.000000
Periodic boundaries:         No
Electronic solver:           Relatively robust
Mixer:                       Broyden mixer
Mixing parameter:                  0.200000
Maximal SCC-cycles:                     100
Nr. of chrg. vec. in memory:              0
Electronic temperature:        0.100000E-07 H      0.272114E-06 eV
Initial charges:             Set automatically (system chrg:   0.100E+01)
Included shells:             C:  s, p
                             N:  s, p
                             H:  s
Extra options:
                             Mulliken analysis
                             Force calculation
Force type                   original
                             Eigenvector printing

--------------------------------------------------------------------------------

***  Geometry step: 0

 iSCC Total electronic   Diff electronic      SCC error    
    1   -0.54060016E+01    0.00000000E+00    0.67300843E+00
    2   -0.54102020E+01   -0.42003472E-02    0.45612044E+00
    3   -0.54130064E+01   -0.28044297E-02    0.77460864E-01
    4   -0.54132873E+01   -0.28082928E-03    0.23327182E-01
    5   -0.54133012E+01   -0.13998147E-04    0.45563758E-02
    6   -0.54133020E+01   -0.78221055E-06    0.56931473E-03
    7   -0.54133020E+01   -0.58562897E-08    0.26040636E-04
    8   -0.54133020E+01   -0.19991120E-10    0.12106586E-04
    9   -0.54133020E+01   -0.58877347E-11    0.12181413E-05
   10   -0.54133020E+01   -0.55955240E-13    0.96684152E-07
>> Charges saved for restart in charges.bin

Total Energy:                       -5.0765336414 H         -138.1395 eV
Extrapolated to 0:                  -5.2357435897 H         -142.4718 eV
Total Mermin free energy:           -5.0765336414 H         -138.1395 eV
Force related energy:               -5.2357435897 H         -142.4718 eV

--------------------------------------------------------------------------------
DFTB+ running times                          cpu [s]             wall clock [s]
--------------------------------------------------------------------------------
SCC                                    +     0.01  ( 54.5%)      0.03  ( 59.6%)
Post-SCC processing                    +     0.00  ( 37.2%)      0.01  ( 29.8%)
--------------------------------------------------------------------------------
Missing                                +     0.00  (  8.3%)      0.00  ( 10.6%)
Total                                  =     0.01  (100.0%)      0.05  (100.0%)
--------------------------------------------------------------------------------
