    14
  Step:   600            Position(A)                                  Velocity(au)
C        -5.37420051    -1.05329104    -0.38039702    -0.00003607    -0.00029428    -0.00036222
C        -4.89124276     0.21634606    -0.33783347    -0.00043813     0.00064296     0.00016463
H        -5.62797724    -1.79913247     0.35580877    -0.00176730    -0.00116206    -0.00089976
H        -5.22852541    -1.43742323    -1.38536754     0.00209524    -0.00010465     0.00037035
H        -4.60296860     0.59216857    -1.29150743     0.00096279    -0.00205876     0.00007579
C        -4.18613988     0.57196210     0.87874282    -0.00035155    -0.00102558     0.00005634
C        -2.74750095     0.70568317     0.76070351    -0.00038068     0.00128028     0.00065948
H        -4.66458719     0.17199274     1.74788630     0.00199105     0.00127033     0.00022782
H        -2.30988729     1.03642853     1.76047547     0.00142322    -0.00226629     0.00001645
C        -1.76296098     0.97520743    -0.24533581     0.00006474    -0.00008338     0.00015746
H        -1.71393233     0.33021113    -1.15014768     0.00109264    -0.00137663    -0.00018122
N        -0.70082380     1.68739949    -0.23083318     0.00058545     0.00005576    -0.00048195
H         0.21714905     1.31787453    -0.57638308    -0.00001437    -0.00013233    -0.00079735
H        -0.35046239     2.10841005     0.70612476    -0.00031446    -0.00114084    -0.00016639
