     6
  Step:     0            Position(A)                                  Velocity(au)
C        -0.03960490     0.01290588     0.02388710     0.00008125     0.00007775    -0.00035474
N        -0.03907658    -0.05861000     1.29194004     0.00011157     0.00006096     0.00026996
H         0.88787384    -0.00621472    -0.51579359     0.00031068    -0.00054646    -0.00005310
H         0.82691694    -0.07375388     1.88492057    -0.00078987    -0.00036957    -0.00070366
H        -0.93768047    -0.03149768     1.81619287    -0.00137018    -0.00061610     0.00143945
H        -0.97509194     0.10236642    -0.53117192    -0.00066915    -0.00024146    -0.00020705
     6
  Step:     1            Position(A)                                  Velocity(au)
C        -0.03916926     0.01334151     0.02179475     0.00007746     0.00008139    -0.00040808
N        -0.03846438    -0.05828871     1.29359262     0.00011009     0.00005662     0.00033231
H         0.88993804    -0.00921852    -0.51645388     0.00044172    -0.00055156    -0.00018721
H         0.82241999    -0.07574469     1.88099716    -0.00084110    -0.00035821    -0.00072063
H        -0.94508863    -0.03487600     1.82411848    -0.00131892    -0.00061902     0.00144474
H        -0.97894911     0.10108373    -0.53254610    -0.00073451    -0.00022788    -0.00029207
     6
  Step:     2            Position(A)                                  Velocity(au)
C        -0.03875697     0.01379681     0.01942018     0.00007256     0.00008465    -0.00045623
N        -0.03787154    -0.05799023     1.29557755     0.00010422     0.00005247     0.00038978
H         0.89270894    -0.01225222    -0.51784281     0.00056559    -0.00055556    -0.00031737
H         0.81771017    -0.07767490     1.87703241    -0.00086363    -0.00034642    -0.00071567
H        -0.95211760    -0.03827360     1.83200721    -0.00122969    -0.00062096     0.00142260
H        -0.98313201     0.09987203    -0.53436893    -0.00078515    -0.00021486    -0.00036954
     6
  Step:     3            Position(A)                                  Velocity(au)
C        -0.03837369     0.01426958     0.01679279     0.00006671     0.00008741    -0.00049825
N        -0.03732175    -0.05771348     1.29786598     0.00009411     0.00004851     0.00044100
H         0.89613901    -0.01530949    -0.51993343     0.00067818    -0.00055793    -0.00044061
H         0.81295143    -0.07954271     1.87315085    -0.00085474    -0.00033424    -0.00068711
H        -0.95857048    -0.04168399     1.83971534    -0.00110664    -0.00062111     0.00137484
H        -0.98755722     0.09872810    -0.53659762    -0.00081941    -0.00020237    -0.00043828
     6
  Step:     4            Position(A)                                  Velocity(au)
C        -0.03802412     0.01475701     0.01394692     0.00006012     0.00008957    -0.00053333
N        -0.03683780    -0.05745739     1.30042195     0.00008003     0.00004475     0.00048480
H         0.90015867    -0.01838105    -0.52268290     0.00077563    -0.00055820    -0.00055405
H         0.80832094    -0.08134647     1.86948455    -0.00081292    -0.00032174    -0.00063434
H        -0.96427398    -0.04509646     1.84710977    -0.00095486    -0.00061882     0.00130399
H        -0.99213320     0.09764905    -0.53918342    -0.00083622    -0.00019037    -0.00049732
     6
  Step:     5            Position(A)                                  Velocity(au)
C        -0.03771181     0.01525570     0.01092106     0.00005302     0.00009105    -0.00056089
N        -0.03644071    -0.05722084     1.30320338     0.00006242     0.00004121     0.00052024
H         0.90467832    -0.02145500    -0.52603325     0.00085474    -0.00055600    -0.00065514
H         0.80400160    -0.08308494     1.86616706    -0.00073835    -0.00030906    -0.00055803
H        -0.96908303    -0.04849687     1.85407159    -0.00078020    -0.00061363     0.00121323
H        -0.99676362     0.09663225    -0.54207282    -0.00083523    -0.00017884    -0.00054599
     6
  Step:     6            Position(A)                                  Velocity(au)
C        -0.03743900     0.01576183     0.00775670     0.00004566     0.00009179    -0.00058059
N        -0.03614894    -0.05700261     1.30616360     0.00004186     0.00003791     0.00054677
H         0.90959196    -0.02451737    -0.52991332     0.00091313    -0.00055110    -0.00074185
H         0.80017219    -0.08475744     1.86332591    -0.00063310    -0.00029634    -0.00046023
H        -0.97288460    -0.05186879     1.86049952    -0.00058898    -0.00060532     0.00110629
H        -1.00135114     0.09567532    -0.54520923    -0.00081680    -0.00016775    -0.00058402
     6
  Step:     7            Position(A)                                  Velocity(au)
C        -0.03720660     0.01627133     0.00449686     0.00003830     0.00009178    -0.00059245
N        -0.03597750    -0.05680140     1.30925337     0.00001908     0.00003487     0.00056426
H         0.91478204    -0.02755291    -0.53424169     0.00094950    -0.00054345    -0.00081284
H         0.79699647    -0.08636393     1.86107462    -0.00050117    -0.00028373    -0.00034440
H        -0.97560004    -0.05519472     1.86631261    -0.00038772    -0.00059392     0.00098731
H        -1.00580143     0.09477606    -0.54853495    -0.00078206    -0.00015712    -0.00061154
     6
  Step:     8            Position(A)                                  Velocity(au)
C        -0.03701416     0.01678004     0.00118435     0.00003116     0.00009106    -0.00059680
N        -0.03593725    -0.05661582     1.31242320    -0.00000512     0.00003210     0.00057300
H         0.92012522    -0.03054608    -0.53893054     0.00096365    -0.00053316    -0.00086760
H         0.79461251    -0.08790497     1.85950532    -0.00034826    -0.00027135    -0.00021508
H        -0.97718574    -0.05845746     1.87145221    -0.00018275    -0.00057970     0.00086059
H        -1.01002695     0.09393230    -0.55199331    -0.00073277    -0.00014695    -0.00062909
     6
  Step:     9            Position(A)                                  Velocity(au)
C        -0.03686005     0.01728398    -0.00214006     0.00002446     0.00008968    -0.00059431
N        -0.03603441    -0.05644440     1.31562567    -0.00002989     0.00002963     0.00057375
H         0.92549860    -0.03348212    -0.54389008     0.00095650    -0.00052059    -0.00090644
H         0.79312356    -0.08938162     1.85868275    -0.00018132    -0.00025933    -0.00007758
H        -0.97763239    -0.06164145     1.87588305     0.00002004    -0.00056316     0.00073044
H        -1.01395048     0.09314186    -0.55553098    -0.00067121    -0.00013727    -0.00063765
     6
  Step:    10            Position(A)                                  Velocity(au)
C        -0.03674158     0.01777955    -0.00543937     0.00001834     0.00008775    -0.00058591
N        -0.03627039    -0.05628561     1.31881779    -0.00005441     0.00002745     0.00056757
H         0.93078574    -0.03634816    -0.54903314     0.00092994    -0.00050622    -0.00093050
H         0.79259162    -0.09079533     1.85864062    -0.00000792    -0.00024774     0.00006253
H        -0.97696235    -0.06473404     1.87959321     0.00021558    -0.00054500     0.00060095
H        -1.01750778     0.09240244    -0.55910009    -0.00059995    -0.00012811    -0.00063850
     6
  Step:    11            Position(A)                                  Velocity(au)
C        -0.03665525     0.01826372    -0.00868184     0.00001293     0.00008539    -0.00057272
N        -0.03664195    -0.05613792     1.32196277    -0.00007794     0.00002557     0.00055579
H         0.93588163    -0.03913418    -0.55427932     0.00088648    -0.00049068    -0.00094149
H         0.79303508    -0.09214774     1.85938086     0.00016448    -0.00023662     0.00019996
H        -0.97522542    -0.06772649     1.88259277     0.00039974    -0.00052603     0.00047573
H        -1.02064911     0.09171152    -0.56266002    -0.00052165    -0.00011951    -0.00063318
     6
  Step:    12            Position(A)                                  Velocity(au)
C        -0.03659701     0.01873416    -0.01184186     0.00000830     0.00008274    -0.00055591
N        -0.03714170    -0.05599977     1.32503109    -0.00009985     0.00002398     0.00053979
H         0.94069588    -0.04183360    -0.55955824     0.00082893    -0.00047464    -0.00094153
H         0.79443035    -0.09344057     1.86087600     0.00032916    -0.00022596     0.00033013
H        -0.97249355    -0.07061463     1.88491148     0.00056948    -0.00050710     0.00035783
H        -1.02333944     0.09106641    -0.56617854    -0.00043878    -0.00011150    -0.00062329
     6
  Step:    13            Position(A)                                  Velocity(au)
C        -0.03656244     0.01918928    -0.01490029     0.00000447     0.00007993    -0.00053659
N        -0.03775891    -0.05586966     1.32800089    -0.00011967     0.00002268     0.00052087
H         0.94515409    -0.04444358    -0.56481135     0.00076003    -0.00045872    -0.00093281
H         0.79671710    -0.09467537     1.86307372     0.00048055    -0.00021570     0.00044939
H        -0.96885514    -0.07339898     1.88659554     0.00072267    -0.00048901     0.00024966
H        -1.02555735     0.09046426    -0.56963224    -0.00035344    -0.00010408    -0.00061038
     6
  Step:    14            Position(A)                                  Velocity(au)
C        -0.03654703     0.01962820    -0.01784405     0.00000144     0.00007705    -0.00051569
N        -0.03848030    -0.05574613     1.33085741    -0.00013703     0.00002164     0.00050014
H         0.94919739    -0.04696475    -0.56999247     0.00068223    -0.00044343    -0.00091740
H         0.79980567    -0.09585334     1.86590282     0.00061437    -0.00020572     0.00055511
H        -0.96440995    -0.07608455     1.88770413     0.00085784    -0.00047242     0.00015303
H        -1.02729295     0.08990219    -0.57300607    -0.00026729    -0.00009722    -0.00059577
     6
  Step:    15            Position(A)                                  Velocity(au)
C        -0.03654632     0.02005061    -0.02066513    -0.00000080     0.00007419    -0.00049390
N        -0.03929079    -0.05562779     1.33359182    -0.00015168     0.00002085     0.00047841
H         0.95278062    -0.04940062    -0.57506680     0.00059752    -0.00042914    -0.00089702
H         0.80358499    -0.09697507     1.86927922     0.00072755    -0.00019585     0.00064552
H        -0.95926552    -0.07868004     1.88830620     0.00097384    -0.00045784     0.00006932
H        -1.02854531     0.08937747    -0.57629228    -0.00018152    -0.00009085    -0.00058055
     6
  Step:    16            Position(A)                                  Velocity(au)
C        -0.03655598     0.02045661    -0.02335925    -0.00000230     0.00007138    -0.00047165
N        -0.04017403    -0.05551336     1.33619957    -0.00016340     0.00002028     0.00045620
H         0.95586967    -0.05175674    -0.58000910     0.00050742    -0.00041604    -0.00087298
H         0.80792989    -0.09804032     1.87311107     0.00081806    -0.00018589     0.00071955
H        -0.95353547    -0.08119706     1.88847819     0.00106954    -0.00044563    -0.00000034
H        -1.02931992     0.08888772    -0.57948881    -0.00009698    -0.00008487    -0.00056547
     6
  Step:    17            Position(A)                                  Velocity(au)
C        -0.03657192     0.02084655    -0.02592441    -0.00000302     0.00007003    -0.00047885
N        -0.04111279    -0.05540162     1.33867876    -0.00017186     0.00001875     0.00045524
H         0.95843874    -0.05403980    -0.58480127     0.00038537    -0.00048306    -0.00082041
H         0.81270700    -0.09904785     1.87730275     0.00087914    -0.00008438     0.00078130
H        -0.94733928    -0.08364915     1.88830239     0.00114855    -0.00052692    -0.00006078
H        -1.02962671     0.08843107    -0.58259773     0.00001120    -0.00000065    -0.00052033
     6
  Step:    18            Position(A)                                  Velocity(au)
C        -0.03658958     0.02123634    -0.02869101    -0.00000269     0.00007082    -0.00053262
N        -0.04208764    -0.05530459     1.34126847    -0.00017722     0.00001557     0.00049118
H         0.96016056    -0.05713538    -0.58914400     0.00022860    -0.00058881    -0.00073016
H         0.81771877    -0.09897990     1.88181054     0.00090029     0.00006330     0.00081202
H        -0.94074687    -0.08706404     1.88780147     0.00121994    -0.00065670    -0.00012257
H        -1.02919517     0.08888051    -0.58528245     0.00014600     0.00012197    -0.00043825
     6
  Step:    19            Position(A)                                  Velocity(au)
C        -0.03660182     0.02163425    -0.03184827    -0.00000145     0.00007224    -0.00060265
N        -0.04308388    -0.05522848     1.34414177    -0.00017923     0.00001193     0.00054219
H         0.96098124    -0.06058868    -0.59292222     0.00006727    -0.00064580    -0.00062815
H         0.82272022    -0.09834377     1.88633420     0.00088563     0.00015712     0.00080517
H        -0.93377089    -0.09095311     1.88693911     0.00127543    -0.00073489    -0.00017965
H        -1.02800292     0.08978762    -0.58747200     0.00027966     0.00019698    -0.00035066
     6
  Step:    20            Position(A)                                  Velocity(au)
C        -0.03660568     0.02203944    -0.03539051     0.00000029     0.00007335    -0.00066942
N        -0.04408012    -0.05517200     1.34729587    -0.00017714     0.00000857     0.00059065
H         0.96090843    -0.06431456    -0.59612695    -0.00009131    -0.00068965    -0.00052517
H         0.82756409    -0.09723328     1.89076138     0.00084534     0.00023716     0.00077939
H        -0.92656826    -0.09523357     1.88580440     0.00129906    -0.00080066    -0.00021889
H        -1.02608624     0.09107033    -0.58918058     0.00040518     0.00026002    -0.00026632
     6
  Step:    21            Position(A)                                  Velocity(au)
C        -0.03659864     0.02244986    -0.03929136     0.00000244     0.00007399    -0.00072988
N        -0.04505346    -0.05513324     1.35070900    -0.00017077     0.00000558     0.00063380
H         0.95996603    -0.06825669    -0.59876143    -0.00024390    -0.00072394    -0.00042342
H         0.83211928    -0.09570686     1.89500002     0.00078242     0.00030767     0.00073788
H        -0.91932702    -0.09985540     1.88450538     0.00128626    -0.00085804    -0.00023752
H        -1.02349791     0.09267869    -0.59043314     0.00051939     0.00031504    -0.00018716
     6
  Step:    22            Position(A)                                  Velocity(au)
C        -0.03657858     0.02286276    -0.04351225     0.00000493     0.00007405    -0.00078213
N        -0.04598040    -0.05510985     1.35434847    -0.00016015     0.00000307     0.00066998
H         0.95819442    -0.07237020    -0.60083856    -0.00038724    -0.00075028    -0.00032487
H         0.83627044    -0.09380974     1.89897211     0.00070018     0.00037030     0.00068333
H        -0.91225545    -0.10478135     1.88316139     0.00123453    -0.00090878    -0.00023407
H        -1.02030671     0.09457597    -0.59126321     0.00061935     0.00036382    -0.00011485
     6
  Step:    23            Position(A)                                  Velocity(au)
C        -0.03654368     0.02327490    -0.04800580     0.00000772     0.00007348    -0.00082488
N        -0.04683789    -0.05509909     1.35817394    -0.00014552     0.00000107     0.00069814
H         0.95565139    -0.07661631    -0.60238119    -0.00051815    -0.00076966    -0.00023151
H         0.83992063    -0.09158101     1.90261364     0.00060242     0.00042581     0.00061854
H        -0.90557189    -0.10998105     1.88189733     0.00114363    -0.00095394    -0.00020829
H        -1.01659710     0.09673237    -0.59171276     0.00070238     0.00040737    -0.00005095
     6
  Step:    24            Position(A)                                  Velocity(au)
C        -0.03649244     0.02368283    -0.05271855     0.00001073     0.00007228    -0.00085744
N        -0.04760451    -0.05509792     1.36214018    -0.00012734    -0.00000036     0.00071775
H         0.95241144    -0.08096018    -0.60342234    -0.00063377    -0.00078295    -0.00014524
H         0.84299390    -0.08905737     1.90587552     0.00049342     0.00047460     0.00054654
H        -0.89949171    -0.11542802     1.88083676     0.00101576    -0.00099431    -0.00016124
H        -1.01246767     0.09912248    -0.59183180     0.00076630     0.00044642     0.00000316
     6
  Step:    25            Position(A)                                  Velocity(au)
C        -0.03642372     0.02408308    -0.05759366     0.00001389     0.00007048    -0.00087966
N        -0.04826174    -0.05510311     1.36619977    -0.00010626    -0.00000120     0.00072886
H         0.94856466    -0.08537120    -0.60400527    -0.00073167    -0.00079114    -0.00006787
H         0.84543806    -0.08627402     1.90872499     0.00037773     0.00051704     0.00047044
H        -0.89421379    -0.12109934     1.88009438     0.00085547    -0.00103069    -0.00009533
H        -1.00802841     0.10172416    -0.59167746     0.00080965     0.00048161     0.00004636
     6
  Step:    26            Position(A)                                  Velocity(au)
C        -0.03633681     0.02447243    -0.06257402     0.00001714     0.00006816    -0.00089195
N        -0.04879504    -0.05511132     1.37030610    -0.00008312    -0.00000144     0.00073201
H         0.94421405    -0.08982385    -0.60418272    -0.00081011    -0.00079537    -0.00000089
H         0.84722584    -0.08326465     1.91114614     0.00025985     0.00055355     0.00039332
H        -0.88990729    -0.12697558     1.87976875     0.00066940    -0.00106392    -0.00001412
H        -1.00339664     0.10451830    -0.59131234     0.00083177     0.00051362     0.00007796
     6
  Step:    27            Position(A)                                  Velocity(au)
C        -0.03623140     0.02484807    -0.06760507     0.00002039     0.00006541    -0.00089514
N        -0.04919468    -0.05511929     1.37441596    -0.00005881    -0.00000113     0.00072813
H         0.93947178    -0.09429859    -0.60401529    -0.00086810    -0.00079691     0.00005457
H         0.84835464    -0.08006083     1.91313965     0.00014400     0.00058474     0.00031802
H        -0.88670027    -0.13304094     1.87993591     0.00046569    -0.00109479     0.00007795
H        -0.99869248     0.10748917    -0.59080237     0.00083280     0.00054319     0.00009766
     6
  Step:    28            Position(A)                                  Velocity(au)
C        -0.03610760     0.02520775    -0.07263709     0.00002358     0.00006235    -0.00089036
N        -0.04945623    -0.05512398     1.37849164    -0.00003428    -0.00000030     0.00071840
H         0.93445498    -0.09878269    -0.60356926    -0.00090531    -0.00079708     0.00009783
H         0.84884467    -0.07669104     1.91472134     0.00003388     0.00061131     0.00024703
H        -0.88467209    -0.13928308     1.88064504     0.00025320    -0.00112401     0.00017597
H        -0.99403438     0.11062478    -0.59021448     0.00081358     0.00057108     0.00010556
     6
  Step:    29            Position(A)                                  Velocity(au)
C        -0.03596594     0.02554984    -0.07762681     0.00002665     0.00005908    -0.00087885
N        -0.04958051    -0.05512272     1.38250218    -0.00001039     0.00000095     0.00070409
H         0.92928170    -0.10327038    -0.60291416    -0.00092203    -0.00079710     0.00012860
H         0.84873601    -0.07317997     1.91592019    -0.00006742     0.00063404     0.00018236
H        -0.88385031    -0.14569266     1.88191660     0.00004084    -0.00115210     0.00027498
H        -0.98953493     0.11391711    -0.58961416     0.00077553     0.00059804     0.00010218
     6
  Step:    30            Position(A)                                  Velocity(au)
C        -0.03580741     0.02587330    -0.08253790     0.00002950     0.00005569    -0.00086181
N        -0.04957329    -0.05511332     1.38642367     0.00001205     0.00000254     0.00068638
H         0.92406773    -0.10776254    -0.60212047    -0.00091887    -0.00079806     0.00014694
H         0.84808514    -0.06954813     1.91677576    -0.00015744     0.00065369     0.00012559
H        -0.88421204    -0.15226223     1.88374287    -0.00016308    -0.00117927     0.00037030
H        -0.98529756     0.11736204    -0.58906332     0.00072044     0.00062474     0.00008833
     6
  Step:    31            Position(A)                                  Velocity(au)
C        -0.03563345     0.02617760    -0.08734073     0.00003206     0.00005228    -0.00084030
N        -0.04944468    -0.05509413     1.39023877     0.00003237     0.00000437     0.00066630
H         0.91892469    -0.11226571    -0.60125791    -0.00089671    -0.00080082     0.00015317
H         0.84696146    -0.06581195     1.91733575    -0.00023427     0.00067093     0.00007785
H        -0.88568852    -0.15898483     1.88609044    -0.00035122    -0.00120545     0.00045777
H        -0.98141447     0.12095884    -0.58861859     0.00065036     0.00065170     0.00006502
     6
  Step:    32            Position(A)                                  Velocity(au)
C        -0.03544596     0.02646269    -0.09201156     0.00003425     0.00004889    -0.00081520
N        -0.04920834    -0.05506408     1.39393571     0.00005002     0.00000633     0.00064468
H         0.91395806    -0.11679114    -0.60039366    -0.00085671    -0.00080604     0.00014785
H         0.84544389    -0.06198391     1.91765350    -0.00029654     0.00068639     0.00003994
H        -0.88817178    -0.16585266     1.88890387    -0.00051748    -0.00123030     0.00053394
H        -0.97796527     0.12470948    -0.58833027     0.00056754     0.00067931     0.00003347
     6
  Step:    33            Position(A)                                  Velocity(au)
C        -0.03524731     0.02672884    -0.09653166     0.00003598     0.00004559    -0.00078726
N        -0.04888073    -0.05502271     1.39750722     0.00006459     0.00000834     0.00062215
H         0.90926575    -0.12135332    -0.59959099    -0.00080027    -0.00081412     0.00013179
H         0.84361813    -0.05807327     1.91778608    -0.00034330     0.00070052     0.00001232
H        -0.89152278    -0.17285584     1.89211033    -0.00065716    -0.00125332     0.00059617
H        -0.97501573     0.12861770    -0.58824120     0.00047445     0.00070774    -0.00000494
     6
  Step:    34            Position(A)                                  Velocity(au)
C        -0.03504033     0.02697665    -0.10088641     0.00003718     0.00004241    -0.00075710
N        -0.04848024    -0.05497006     1.40094933     0.00007580     0.00001029     0.00059919
H         0.90493658    -0.12596876    -0.59890800    -0.00072903    -0.00082529     0.00010595
H         0.84157388    -0.05408687     1.91779235    -0.00037401     0.00071375    -0.00000483
H        -0.89557998    -0.17998143     1.89562458    -0.00076706    -0.00127392     0.00064268
H        -0.97261678     0.13268787    -0.58838596     0.00037373     0.00073705    -0.00004873
     6
  Step:    35            Position(A)                                  Velocity(au)
C        -0.03482826     0.02720685    -0.10506470     0.00003777     0.00003938    -0.00072528
N        -0.04802641    -0.05490670     1.40426050     0.00008352     0.00001211     0.00057614
H         0.90104907    -0.13065488    -0.59839681    -0.00064496    -0.00083962     0.00007150
H         0.83940278    -0.05002883     1.91773170    -0.00038856     0.00072648    -0.00001153
H        -0.90016806    -0.18721384     1.89935383    -0.00084546    -0.00129164     0.00067256
H        -0.97080352     0.13692479    -0.58879037     0.00026821     0.00076725    -0.00009631
     6
  Step:    36            Position(A)                                  Velocity(au)
C        -0.03461470     0.02742033    -0.10905853     0.00003772     0.00003651    -0.00069231
N        -0.04753915    -0.05483359     1.40744101     0.00008776     0.00001373     0.00055327
H         0.89766946    -0.13542915    -0.59810235    -0.00055036    -0.00085704     0.00002977
H         0.83719575    -0.04590124     1.91766244    -0.00038729     0.00073906    -0.00000811
H        -0.90510616    -0.19453500     1.90320265    -0.00089202    -0.00130609     0.00068569
H        -0.96959468     0.14133282    -0.58947117     0.00016078     0.00079820    -0.00014611
     6
  Step:    37            Position(A)                                  Velocity(au)
C        -0.03440343     0.02761805    -0.11286270     0.00003698     0.00003381    -0.00065866
N        -0.04703796    -0.05475200     1.41049233     0.00008862     0.00001511     0.00053075
H         0.89484993    -0.14030832    -0.59806150    -0.00044784    -0.00087738    -0.00001776
H         0.83504043    -0.04170434     1.91764034    -0.00037100     0.00075178     0.00000486
H        -0.91021550    -0.20192521     1.90707723    -0.00090765    -0.00131706     0.00068267
H        -0.96899256     0.14591544    -0.59043609     0.00005429     0.00082973    -0.00019655
     6
  Step:    38            Position(A)                                  Velocity(au)
C        -0.03419828     0.02780105    -0.11647462     0.00003558     0.00003130    -0.00062477
N        -0.04654134    -0.05466345     1.41341684     0.00008634     0.00001621     0.00050871
H         0.89262715    -0.14530777    -0.59830231    -0.00034019    -0.00090034    -0.00006950
H         0.83301858    -0.03743670     1.91771715    -0.00034092     0.00076495     0.00002657
H        -0.91532571    -0.20936415     1.91088907    -0.00089426    -0.00132453     0.00066466
H        -0.96898339     0.15067498    -0.59168421    -0.00004849     0.00086163    -0.00024617
     6
  Step:    39            Position(A)                                  Velocity(au)
C        -0.03400298     0.02797036    -0.11989409     0.00003354     0.00002897    -0.00059104
N        -0.04606622    -0.05456956     1.41621755     0.00008124     0.00001702     0.00048726
H         0.89102132    -0.15044102    -0.59884365    -0.00023036    -0.00092557    -0.00012382
H         0.83120359    -0.03309538     1.91793935    -0.00029872     0.00077881     0.00005598
H        -0.92027972    -0.21683188     1.91455755    -0.00085445    -0.00132864     0.00063320
H        -0.96953833     0.15561250    -0.59320659    -0.00014505     0.00089367    -0.00029363
     6
  Step:    40            Position(A)                                  Velocity(au)
C        -0.03382098     0.02812697    -0.12312309     0.00003092     0.00002681    -0.00055781
N        -0.04562752    -0.05447203     1.41889791     0.00007367     0.00001753     0.00046644
H         0.89003585    -0.15571923    -0.59969516    -0.00012130    -0.00095260    -0.00017912
H         0.82965833    -0.02867611     1.91834688    -0.00024642     0.00079355     0.00009187
H        -0.92493721    -0.22430970     1.91801174    -0.00079137    -0.00132966     0.00059007
H        -0.97061503     0.16072767    -0.59498714    -0.00023314     0.00092560    -0.00033773
     6
  Step:    41            Position(A)                                  Velocity(au)
C        -0.03365536     0.02827181    -0.12616540     0.00002779     0.00002480    -0.00052537
N        -0.04523792    -0.05437248     1.42146161     0.00006407     0.00001776     0.00044627
H         0.88965759    -0.16115085    -0.60085743    -0.00001585    -0.00098093    -0.00023382
H         0.82843321    -0.02417365     1.91897220    -0.00018632     0.00080934     0.00013284
H        -0.92917684    -0.23178084     1.92119155    -0.00070842    -0.00132794     0.00053721
H        -0.97215944     0.16601876    -0.59700365    -0.00031087     0.00095715    -0.00037751
     6
  Step:    42            Position(A)                                  Velocity(au)
C        -0.03350870     0.02840568    -0.12902631     0.00002426     0.00002292    -0.00049394
N        -0.04490763    -0.05427245     1.42391241     0.00005286     0.00001773     0.00042676
H         0.88985769    -0.16674128    -0.60232250     0.00008329    -0.00100997    -0.00028649
H         0.82756475    -0.01958208     1.91983952    -0.00012097     0.00082623     0.00017739
H        -0.93289729    -0.23923096     1.92404807    -0.00060914    -0.00132393     0.00047658
H        -0.97410808     0.17148257    -0.59922897    -0.00037675     0.00098806    -0.00041216
     6
  Step:    43            Position(A)                                  Velocity(au)
C        -0.03338298     0.02852924    -0.13171225     0.00002042     0.00002115    -0.00046370
N        -0.04464432    -0.05417332     1.42625411     0.00004049     0.00001748     0.00040790
H         0.89059290    -0.17249268    -0.60407463     0.00017371    -0.00103914    -0.00033579
H         0.82707472    -0.01489523     1.92096428    -0.00005303     0.00084422     0.00022395
H        -0.93601736    -0.24664836     1.92654348    -0.00049701    -0.00131807     0.00041008
H        -0.97639024     0.17711450    -0.60163217    -0.00042966     0.00101806    -0.00044110
     6
  Step:    44            Position(A)                                  Velocity(au)
C        -0.03327957     0.02864303    -0.13423051     0.00001638     0.00001945    -0.00043475
N        -0.04445315    -0.05407625     1.42849036     0.00002741     0.00001704     0.00038964
H         0.89180732    -0.17840390    -0.60609120     0.00025333    -0.00106782    -0.00038060
H         0.82696961    -0.01010710     1.92235299     0.00001481     0.00086324     0.00027093
H        -0.93847533    -0.25402411     1.92865054    -0.00037540    -0.00131085     0.00033953
H        -0.97893029     0.18290856    -0.60417959    -0.00046889     0.00104689    -0.00046392
     6