 Fermi distribution function

Calculation with static geometry


********************************************************************************
 iSCC Total electronic   Diff electronic      SCC error    
   10   -0.54501079E+01   -0.10924595E-12    0.16873680E-07
********************************************************************************

 Total charge:     1.00000000

 Atomic gross charges (e)
 Atom           Charge
    1       0.16046528
    2      -0.03593341
    3       0.17350947
    4       0.27731315
    5       0.27044191
    6       0.15420360

Nr. of electrons (up):     12.00000000
Atom populations (up)
 Atom       Population
    1       3.83953472
    2       5.03593341
    3       0.82649053
    4       0.72268685
    5       0.72955809
    6       0.84579640

l-shell populations (up)
 Atom Sh.   l       Population
    1   1   0       1.29471029
    1   2   1       2.54482443
    2   1   0       1.41516207
    2   2   1       3.62077133
    3   1   0       0.82649053
    4   1   0       0.72268685
    5   1   0       0.72955809
    6   1   0       0.84579640

Orbital populations (up)
 Atom Sh.   l   m       Population  Label
    1   1   0   0       1.29471029  s
    1   2   1  -1       0.61399396  p_y
    1   2   1   0       0.88122639  p_z
    1   2   1   1       1.04960408  p_x
    2   1   0   0       1.41516207  s
    2   2   1  -1       1.34036871  p_y
    2   2   1   0       1.09703689  p_z
    2   2   1   1       1.18336573  p_x
    3   1   0   0       0.82649053  s
    4   1   0   0       0.72268685  s
    5   1   0   0       0.72955809  s
    6   1   0   0       0.84579640  s

Fermi level:                        -0.4863657266 H          -13.2347 eV
Band energy:                        -8.9886702861 H         -244.5942 eV
TS:                                  0.0000000000 H            0.0000 eV
Band free energy (E-TS):            -8.9886702861 H         -244.5942 eV
Extrapolated E(0K):                 -8.9886702861 H         -244.5942 eV
Input / Output electrons (q):     12.0000000000     12.0000000000

Energy H0:                          -5.5840338295 H         -151.9493 eV
Energy SCC:                          0.1339259308 H            3.6443 eV
Total Electronic energy:            -5.4501078987 H         -148.3050 eV
Repulsive energy:                    0.2066260560 H            5.6226 eV
Total energy:                       -5.2434818427 H         -142.6824 eV
Extrapolated to 0:                  -5.2434818427 H         -142.6824 eV
Total Mermin free energy:           -5.2434818427 H         -142.6824 eV
Force related energy:               -5.2434818427 H         -142.6824 eV

SCC converged

Excitation Energy:                   0.1644612029 H            4.4752 eV

Total Forces
    1      0.010211761916     -0.007519256681     -0.023829426711
    2      0.000854809884      0.004010751483      0.008819682794
    3     -0.007227174260      0.008780346908      0.005125283250
    4     -0.008252821996     -0.007000108968      0.004797499617
    5      0.006335066450      0.006247934278      0.003405531338
    6     -0.001921641994     -0.004519667020      0.001681429712

Maximal derivative component:        0.238294E-01 au


