    14
  Step:     0            Position(A)                                  Velocity(au)
C        -5.97338515    -0.88939937    -0.13531858    -0.00013954     0.00000953     0.00016580
C        -4.68549396    -0.70001059     0.12178833    -0.00004250     0.00016713    -0.00019668
H        -6.82735568    -0.16737707    -0.28096971    -0.00071539    -0.00121967    -0.00059404
H        -6.41827060    -1.92907813     0.02842116     0.00080697     0.00010145    -0.00016335
H        -4.06725210    -1.56078520     0.37118153    -0.00030035     0.00072375     0.00022940
C        -3.96991429     0.56399549     0.00700037     0.00025765    -0.00004771    -0.00005734
C        -2.59559750     0.60848783     0.15504025    -0.00012104    -0.00011704    -0.00005530
H        -4.55722087     1.44324144    -0.34685720     0.00002947    -0.00115165     0.00055812
H        -2.12722211    -0.27098959     0.45005559    -0.00089219    -0.00043989     0.00068447
C        -1.85037911     1.75178004    -0.00067734    -0.00022278     0.00007526     0.00022061
H        -2.18858551     2.70608850    -0.45231266     0.00078902    -0.00025952     0.00010874
N        -0.47384596     1.67316207     0.18941858     0.00036244     0.00004063    -0.00014729
H         0.19468601     2.44703976     0.21720379    -0.00076093     0.00014625    -0.00006466
H        -0.10136915     0.81570474     0.63323884    -0.00079725     0.00049598     0.00036951
    14
  Step:     1            Position(A)                                  Velocity(au)
C        -5.97551391    -0.88949239    -0.13347820    -0.00024702    -0.00002628     0.00017025
C        -4.68552293    -0.69798660     0.11965986     0.00003518     0.00020329    -0.00019249
H        -6.83345268    -0.18085928    -0.28761270    -0.00040604    -0.00123213    -0.00061973
H        -6.40858516    -1.92661511     0.02602397     0.00095402     0.00033137    -0.00026921
H        -4.07046359    -1.55303823     0.37386633    -0.00027700     0.00067501     0.00026409
C        -3.96763857     0.56338255     0.00627118     0.00015859    -0.00006587    -0.00007549
C        -2.59676034     0.60733211     0.15446483    -0.00009037    -0.00009556    -0.00004912
H        -4.55623641     1.43009977    -0.34031963     0.00013582    -0.00121723     0.00062464
H        -2.13562023    -0.27780983     0.45824410    -0.00064693    -0.00078754     0.00080618
C        -1.85258858     1.75277093     0.00164942    -0.00017835     0.00010425     0.00020544
H        -2.18015487     2.70249556    -0.45046023     0.00073890    -0.00037913     0.00022054
N        -0.46984430     1.67353560     0.18786124     0.00036438     0.00002740    -0.00013858
H         0.18558631     2.44870753     0.21630292    -0.00087480     0.00018294    -0.00009652
H        -0.11049393     0.82193207     0.63681092    -0.00085099     0.00061803     0.00029754
    14
  Step:     2            Position(A)                                  Velocity(au)
C        -5.97878926    -0.88997419    -0.13159393    -0.00034678    -0.00006086     0.00017401
C        -4.68472422    -0.69556317     0.11757719     0.00010737     0.00023959    -0.00018850
H        -6.83623855    -0.19433235    -0.29452740    -0.00011818    -0.00121370    -0.00064504
H        -6.39739965    -1.92182868     0.02253171     0.00107643     0.00051654    -0.00036178
H        -4.07331196    -1.54601804     0.37695903    -0.00023481     0.00059335     0.00030332
C        -3.96644481     0.56255439     0.00534891     0.00006089    -0.00008743    -0.00009237
C        -2.59757459     0.60639723     0.15396576    -0.00005665    -0.00007787    -0.00004088
H        -4.55424951     1.41661218    -0.33319210     0.00020731    -0.00120923     0.00066362
H        -2.14137496    -0.28821843     0.46769232    -0.00041869    -0.00107747     0.00090809
C        -1.85428077     1.75406072     0.00381710    -0.00012857     0.00012900     0.00019178
H        -2.17242059     2.69779420    -0.44748790     0.00066121    -0.00045670     0.00031095
N        -0.46587447     1.67376152     0.18638677     0.00035657     0.00001418    -0.00013243
H         0.17554800     2.45104187     0.21509223    -0.00093188     0.00026874    -0.00012110
H        -0.11998626     0.82922535     0.63974817    -0.00086217     0.00068431     0.00025747
    14
  Step:     3            Position(A)                                  Velocity(au)
C        -5.98310031    -0.89082392    -0.12967139    -0.00043424    -0.00009285     0.00017742
C        -4.68317404    -0.69274508     0.11553609     0.00017141     0.00027479    -0.00018500
H        -6.83603809    -0.20741129    -0.30172414     0.00013207    -0.00115621    -0.00067277
H        -6.38503612    -1.91531472     0.01810944     0.00116499     0.00063758    -0.00043770
H        -4.07560052    -1.54005755     0.38050208    -0.00017660     0.00048527     0.00034532
C        -3.96630644     0.56146991     0.00425031    -0.00003343    -0.00011293    -0.00010754
C        -2.59799965     0.60562856     0.15357061    -0.00001884    -0.00006579    -0.00002982
H        -4.55170099     1.40364549    -0.32580173     0.00023454    -0.00111862     0.00067133
H        -2.14477987    -0.30138163     0.47811020    -0.00022344    -0.00127936     0.00097880
C        -1.85540124     1.75559305     0.00584498    -0.00007429     0.00014780     0.00018007
H        -2.16568961     2.69250437    -0.44365770     0.00055565    -0.00048288     0.00037565
N        -0.46204370     1.67384572     0.18496402     0.00033929     0.00000207    -0.00012930
H         0.16519957     2.45458678     0.21365373    -0.00093424     0.00040102    -0.00013816
H        -0.12935560     0.83690270     0.64244351    -0.00082795     0.00068500     0.00025571
    14
  Step:     4            Position(A)                                  Velocity(au)
C        -5.98828913    -0.89200545    -0.12771251    -0.00050556    -0.00012088     0.00018080
C        -4.68097420    -0.68955168     0.11352992     0.00022538     0.00030751    -0.00018213
H        -6.83334919    -0.21962669    -0.30924548     0.00032970    -0.00105266    -0.00070595
H        -6.37191317    -1.90788029     0.01295621     0.00121165     0.00067603    -0.00049427
H        -4.07717540    -1.53540182     0.38451366    -0.00010719     0.00036006     0.00038747
C        -3.96717624     0.56008385     0.00299632    -0.00012277    -0.00014250    -0.00012071
C        -2.59798673     0.60495788     0.15331334     0.00002356    -0.00005992    -0.00001558
H        -4.54911859     1.39214013    -0.31850558     0.00021195    -0.00094214     0.00064647
H        -2.14626312    -0.31620697     0.48910554    -0.00006969    -0.00137697     0.00101153
C        -1.85590592     1.75729403     0.00775649    -0.00001655     0.00015920     0.00017060
H        -2.16026465     2.68723025    -0.43926988     0.00042343    -0.00045233     0.00041233
N        -0.45845190     1.67380684     0.18355811     0.00031360    -0.00000778    -0.00012933
H         0.15510973     2.45981492     0.21206967    -0.00089049     0.00056926    -0.00014791
H        -0.13809929     0.84421095     0.64534235    -0.00074924     0.00061803     0.00029467
    14
  Step:     5            Position(A)                                  Velocity(au)
C        -5.99416040    -0.89346840    -0.12571607    -0.00055798    -0.00014380     0.00018440
C        -4.67824344    -0.68601768     0.11155173     0.00026817     0.00033640    -0.00017980
H        -6.82882537    -0.23044028    -0.31716813     0.00046239    -0.00089822    -0.00074756
H        -6.35852895    -1.90052519     0.00729623     0.00121057     0.00061686    -0.00052987
H        -4.07794555    -1.53218044     0.38897872    -0.00003287     0.00022902     0.00042644
C        -3.96899232     0.55835236     0.00160952    -0.00020620    -0.00017567    -0.00013191
C        -2.59748415     0.60431760     0.15322966     0.00007067    -0.00005965     0.00000181
H        -4.54706425     1.38303447    -0.31165893     0.00013995    -0.00068487     0.00059117
H        -2.14630455    -0.33150553     0.50023944     0.00004096    -0.00136800     0.00100443
C        -1.85576341     1.75907586     0.00957719     0.00004337     0.00016219     0.00016343
H        -2.15642624     2.68260880    -0.43463730     0.00026756    -0.00036518     0.00042138
N        -0.45518305     1.67367561     0.18213457     0.00028127    -0.00001439    -0.00013229
H         0.14571845     2.46704054     0.21041786    -0.00081467     0.00075574    -0.00015096
H        -0.14574671     0.85042320     0.64888992    -0.00063101     0.00049083     0.00037138
    14
  Step:     6            Position(A)                                  Velocity(au)
C        -6.00049596    -0.89515138    -0.12367845    -0.00059026    -0.00016088     0.00018840
C        -4.67510749    -0.68219219     0.10959636     0.00029962     0.00036028    -0.00017780
H        -6.82323342    -0.23927687    -0.32559976     0.00052283    -0.00069167    -0.00079998
H        -6.34542954    -1.89438538     0.00136429     0.00115950     0.00045233    -0.00054442
H        -4.07789454    -1.53039154     0.39384282     0.00003951     0.00010419     0.00045855
C        -3.97168723     0.55624076     0.00011048    -0.00028367    -0.00021121    -0.00014149
C        -2.59644078     0.60365303     0.15335287     0.00012234    -0.00006344     0.00002200
H        -4.54605699     1.37715738    -0.30557252     0.00002630    -0.00036211     0.00051149
H        -2.14536706    -0.34613452     0.51107941     0.00011199    -0.00126092     0.00095982
C        -1.85495720     1.76084230     0.01133190     0.00010406     0.00015633     0.00015835
H        -2.15441123     2.67924125    -0.43005147     0.00009313    -0.00022831     0.00040651
N        -0.45229847     1.67349213     0.18066412     0.00024454    -0.00001713    -0.00013745
H         0.13728735     2.47634810     0.20876718    -0.00072385     0.00093781    -0.00014827
H        -0.15190389     0.85494888     0.65346700    -0.00048200     0.00032063     0.00047694
    14
  Step:     7            Position(A)                                  Velocity(au)
C        -6.00707345    -0.89698789    -0.12159439    -0.00060303    -0.00017205     0.00019291
C        -4.67168874    -0.67813586     0.10766198     0.00032045     0.00037826    -0.00017576
H        -6.81738751    -0.24557194    -0.33466918     0.00051090    -0.00043709    -0.00086425
H        -6.33316268    -1.89062966    -0.00461397     0.00106094     0.00018665    -0.00053986
H        -4.07708127    -1.52990105     0.39901032     0.00010352    -0.00000304     0.00048021
C        -3.97519817     0.55373175    -0.00148595    -0.00035597    -0.00024720    -0.00015011
C        -2.59480764     0.60292966     0.15371103     0.00017830    -0.00006937     0.00004445
H        -4.54648897     1.37511259    -0.30046916    -0.00011407     0.00000088     0.00041702
H        -2.14385450    -0.35909047     0.52123733     0.00014981    -0.00107081     0.00088283
C        -1.85348684     1.76249579     0.01304150     0.00016410     0.00014185     0.00015487
H        -2.15438882     2.67761405    -0.42574407    -0.00009269    -0.00005559     0.00037478
N        -0.44983327     1.67330089     0.17912759     0.00020575    -0.00001587    -0.00014374
H         0.12988278     2.48755682     0.20717410    -0.00063505     0.00109173    -0.00014109
H        -0.15629139     0.85743753     0.65932388    -0.00031372     0.00013254     0.00059708
    14
  Step:     8            Position(A)                                  Velocity(au)
C        -6.01368829    -0.89891540    -0.11945818    -0.00059888    -0.00017814     0.00019788
C        -4.66809698    -0.67391692     0.10575123     0.00033214     0.00038985    -0.00017325
H        -6.81205660    -0.24883910    -0.34450680     0.00043549    -0.00014515    -0.00093923
H        -6.32221944    -1.89030205    -0.01044612     0.00092259    -0.00016070    -0.00052019
H        -4.07562988    -1.53045800     0.40434831     0.00015404    -0.00008330     0.00048840
C        -3.97947478     0.55083288    -0.00317349    -0.00042429    -0.00028114    -0.00015859
C        -2.59254017     0.60213542     0.15432539     0.00023788    -0.00007552     0.00006851
H        -4.54855246     1.37717653    -0.29644945    -0.00026122     0.00037164     0.00031955
H        -2.14208969    -0.36956050     0.53039294     0.00016210    -0.00081591     0.00078013
C        -1.85136724     1.76394563     0.01471989     0.00022222     0.00011981     0.00015223
H        -2.15643891     2.67802514    -0.42185254    -0.00028101     0.00013342     0.00033577
N        -0.44779721     1.67314489     0.17751960     0.00016701    -0.00001099    -0.00014982
H         0.12339431     2.50023186     0.20568058    -0.00056230     0.00119678    -0.00013073
H        -0.15876711     0.85784835     0.66652917    -0.00013884    -0.00004443     0.00071419
    14
  Step:     9            Position(A)                                  Velocity(au)
C        -6.02017504    -0.90088505    -0.11726533    -0.00058209    -0.00018076     0.00020311
C        -4.66442252    -0.66960714     0.10387173     0.00033655     0.00039481    -0.00016983
H        -6.80786023    -0.24874746    -0.35521665     0.00031439     0.00016679    -0.00102098
H        -6.31297920    -1.89414531    -0.01599415     0.00075644    -0.00055513    -0.00049105
H        -4.07371133    -1.53172351     0.40969498     0.00018785    -0.00013026     0.00048104
C        -3.98448039     0.54758137    -0.00495535    -0.00048956    -0.00031025    -0.00016773
C        -2.58960358     0.60127752     0.15520974     0.00029976    -0.00008044     0.00009347
H        -4.55220357     1.38324287    -0.29347838    -0.00039417     0.00071566     0.00023081
H        -2.14030834    -0.37694004     0.53830415     0.00015679    -0.00051537     0.00065896
C        -1.84862529     1.76511685     0.01637191     0.00027760     0.00009200     0.00014961
H        -2.16053649     2.68053288    -0.41839856    -0.00046201     0.00031612     0.00030019
N        -0.44617959     1.67306036     0.17584995     0.00012985    -0.00000325    -0.00015439
H         0.11758141     2.51373877     0.20431407    -0.00051475     0.00123845    -0.00011845
H        -0.15932872     0.85646548     0.67494816     0.00003066    -0.00018259     0.00081040
    14
  Step:    10            Position(A)                                  Velocity(au)
C        -6.02642270    -0.90286976    -0.11501468    -0.00055782    -0.00018201     0.00020821
C        -4.66073436    -0.66527966     0.10203588     0.00033537     0.00039294    -0.00016509
H        -6.80517879    -0.24519029    -0.36684277     0.00017187     0.00047625    -0.00110283
H        -6.30567083    -1.90244659    -0.02118882     0.00057661    -0.00095157    -0.00045863
H        -4.07152032    -1.53330759     0.41487205     0.00020382    -0.00014093     0.00045722
C        -3.99018477     0.54404562    -0.00684282    -0.00055165    -0.00033171    -0.00017811
C        -2.58598228     0.60037566     0.15637030     0.00036163    -0.00008337     0.00011866
H        -4.55717558     1.39283291    -0.29140012    -0.00049516     0.00100229     0.00016018
H        -2.13865970    -0.38083523     0.54480886     0.00014163    -0.00018821     0.00052651
C        -1.84529422     1.76595834     0.01799288     0.00032983     0.00006088     0.00014615
H        -2.16654627     2.68494090    -0.41528533    -0.00062589     0.00047038     0.00027806
N        -0.44495656     1.67307373     0.17414200     0.00009520     0.00000642    -0.00015637
H         0.11213306     2.52732543     0.20308936    -0.00049613     0.00121019    -0.00010518
H        -0.15809640     0.85385386     0.68425829     0.00018501    -0.00026043     0.00087075
    14
  Step:    11            Position(A)                                  Velocity(au)
C        -6.03237844    -0.90486689    -0.11271029    -0.00053100    -0.00018397     0.00021265
C        -4.65708560    -0.66101079     0.10026011     0.00032960     0.00038378    -0.00015873
H        -6.80410029    -0.23832849    -0.37934308     0.00003451     0.00075877    -0.00117627
H        -6.30036471    -1.91496275    -0.02602750     0.00039656    -0.00130311    -0.00042832
H        -4.06925227    -1.53480673     0.41969751     0.00020285    -0.00011574     0.00041711
C        -3.99654876     0.54032448    -0.00885190    -0.00060906    -0.00034289    -0.00019000
C        -2.58169230     0.59945374     0.15780555     0.00042022    -0.00008415     0.00014333
H        -4.56303617     1.40516991    -0.28997406    -0.00055272     0.00120937     0.00011337
H        -2.13720986    -0.38105760     0.54982255     0.00012409     0.00014695     0.00038984
C        -1.84140968     1.76644873     0.01956921     0.00037872     0.00002917     0.00014114
H        -2.17422906     2.69082324    -0.41231556    -0.00076397     0.00057794     0.00027709
N        -0.44409688     1.67320092     0.17242904     0.00006359     0.00001713    -0.00015508
H         0.10672753     2.54021402     0.20201306    -0.00050513     0.00111352    -0.00009151
H        -0.15528127     0.85076806     0.69399758     0.00031759    -0.00026570     0.00088551
    14
  Step:    12            Position(A)                                  Velocity(au)
C        -6.03803942    -0.90689435    -0.11036265    -0.00050544    -0.00018811     0.00021582
C        -4.65352381    -0.65688372     0.09856345     0.00031920     0.00036653    -0.00015058
H        -6.80442380    -0.22859068    -0.39257600    -0.00007389     0.00099191    -0.00123247
H        -6.29699532    -1.93095464    -0.03055913     0.00022674    -0.00157035    -0.00040377
H        -4.06708260    -1.53583953     0.42399724     0.00018747    -0.00005803     0.00036193
C        -4.00350920     0.53654415    -0.01099949    -0.00065920    -0.00034152    -0.00020334
C        -2.57678927     0.59853480     0.15950593     0.00047192    -0.00008286     0.00016675
H        -4.56926743     1.41929026    -0.28891992    -0.00056269     0.00132532     0.00009202
H        -2.13594504    -0.37762038     0.55333737     0.00011135     0.00047171     0.00025596
C        -1.83700898     1.76659655     0.02108056     0.00042401    -0.00000067     0.00013409
H        -2.18325966     2.69758453    -0.40922355    -0.00086957     0.00062698     0.00030175
N        -0.44356547     1.67344847     0.17074939     0.00003529     0.00002811    -0.00015027
H         0.10108229     2.55168574     0.20108744    -0.00053652     0.00095691    -0.00007772
H        -0.15114843     0.84804117     0.70363053     0.00042511    -0.00019617     0.00085108
    14
  Step:    13            Position(A)                                  Velocity(au)
C        -6.04343598    -0.90898214    -0.10798883    -0.00048334    -0.00019511     0.00021718
C        -4.65010254    -0.65299230     0.09696595     0.00030328     0.00034018    -0.00014062
H        -6.80571677    -0.21662851    -0.40630582    -0.00013624     0.00115870    -0.00126381
H        -6.29540429    -1.94931716    -0.03486076     0.00007351    -0.00172784    -0.00038649
H        -4.06515103    -1.53607630     0.42761544     0.00016141     0.00002644     0.00029372
C        -4.01097001     0.53285312    -0.01330028    -0.00069907    -0.00032589    -0.00021782
C        -2.57136817     0.59764095     0.16145360     0.00051352    -0.00007942     0.00018816
H        -4.57534615     1.43416382    -0.28796100    -0.00052741     0.00134873     0.00009439
H        -2.13477393    -0.37073800     0.55542206     0.00011042     0.00076759     0.00013197
C        -1.83213363     1.76643416     0.02250278     0.00046518    -0.00002690     0.00012481
H        -2.19325259     2.70453961    -0.40571414    -0.00093847     0.00061290     0.00035307
N        -0.44332490     1.67381584     0.16914168     0.00001047     0.00003883    -0.00014209
H         0.09499018     2.56114817     0.20031287    -0.00058240     0.00075402    -0.00006395
H        -0.14598115     0.84647647     0.71261661     0.00050729    -0.00005858     0.00076967
    14
  Step:    14            Position(A)                                  Velocity(au)
C        -6.04861336    -0.91116277    -0.10561147    -0.00046534    -0.00020485     0.00021630
C        -4.64688901    -0.64944168     0.09548705     0.00028049     0.00030384    -0.00012898
H        -6.80740435    -0.20324193    -0.42022432    -0.00014400     0.00124959    -0.00126513
H        -6.29538724    -1.96875444    -0.03901426    -0.00006072    -0.00176599    -0.00037611
H        -4.06355139    -1.53526120     0.43042301     0.00012913     0.00013021     0.00021524
C        -4.01880280     0.52941466    -0.01576479    -0.00072610    -0.00029508    -0.00023305
C        -2.56555505     0.59679737     0.16362229     0.00054273    -0.00007329     0.00020679
H        -4.58080562     1.44879636    -0.28685500    -0.00045379     0.00128624     0.00011653
H        -2.13352936    -0.36082791     0.55622446     0.00012818     0.00101587     0.00002527
C        -1.82683230     1.76600811     0.02381095     0.00050148    -0.00004868     0.00011333
H        -2.20379039     2.71099299    -0.40149953    -0.00096893     0.00053773     0.00042905
N        -0.44333653     1.67429804     0.16764091    -0.00001083     0.00004899    -0.00013100
H         0.08834116     2.56818131     0.19968830    -0.00063343     0.00052191    -0.00005039
H        -0.14005057     0.84675962     0.72046858     0.00056623     0.00013363     0.00064806
    14
  Step:    15            Position(A)                                  Velocity(au)
C        -6.05361630    -0.91346370    -0.10325697    -0.00045098    -0.00021668     0.00021292
C        -4.64396636    -0.64634523     0.09414422     0.00024951     0.00025707    -0.00011588
H        -6.80886715    -0.18929135    -0.43398290    -0.00009683     0.00126264    -0.00123424
H        -6.29673270    -1.98795167    -0.04308883    -0.00017645    -0.00168895    -0.00037106
H        -4.06232604    -1.53322774     0.43232416     0.00009541     0.00024468     0.00012973
C        -4.02685493     0.52639775    -0.01839864    -0.00073860    -0.00024903    -0.00024856
C        -2.55949495     0.59603770     0.16597744     0.00055834    -0.00006352     0.00022191
H        -4.58527375     1.46230283    -0.28541160    -0.00035123     0.00114990     0.00015344
H        -2.13196969    -0.34851398     0.55597494     0.00017119     0.00119806    -0.00005663
C        -1.82116285     1.76536929     0.02498206     0.00053208    -0.00006596     0.00009992
H        -2.21444968     2.71630341    -0.39632782    -0.00096147     0.00040866     0.00052548
N        -0.44356175     1.67488760     0.16627577    -0.00002867     0.00005842    -0.00011767
H         0.08113262     2.57256585     0.19921048    -0.00067969     0.00027955    -0.00003725
H        -0.13359371     0.84939992     0.72679419     0.00060580     0.00036279     0.00049617
    14
  Step:    16            Position(A)                                  Velocity(au)
C        -6.05847933    -0.91590316    -0.10095334    -0.00043909    -0.00022970     0.00020701
C        -4.64143060    -0.64381771     0.09295188     0.00020944     0.00020017    -0.00010165
H        -6.80952274    -0.17561923    -0.44722576    -0.00000063     0.00120220    -0.00117178
H        -6.29924739    -2.00570347    -0.04713189    -0.00027595    -0.00151043    -0.00036923
H        -4.06146406    -1.52990834     0.43326119     0.00006512     0.00036057     0.00004085
C        -4.03496103     0.52396661    -0.02120244    -0.00073593    -0.00018869    -0.00026390
C        -2.55334021     0.59540768     0.16847689     0.00056012    -0.00004899     0.00023288
H        -4.58848954     1.47395266    -0.28349826    -0.00022998     0.00095490     0.00019984
H        -2.12978421    -0.33461806     0.55498560     0.00024524     0.00129720    -0.00010664
C        -1.81519207     1.76456516     0.02599699     0.00055622    -0.00007926     0.00008500
H        -2.22482429     2.71993319    -0.39000360    -0.00091845     0.00023647     0.00063670
N        -0.44396374     1.67557608     0.16506676    -0.00004329     0.00006707    -0.00010288
H         0.07347157     2.57429691     0.19887339    -0.00071138     0.00004660    -0.00002480
H        -0.12679763     0.85469644     0.73132321     0.00063104     0.00060897     0.00032588
    14
  Step:    17            Position(A)                                  Velocity(au)
C        -6.06322225    -0.91848875    -0.09872827    -0.00042829    -0.00024296     0.00019865
C        -4.63938436    -0.64196615     0.09192053     0.00016003     0.00013427    -0.00008666
H        -6.80888085    -0.16299084    -0.45961776     0.00013479     0.00107711    -0.00108055
H        -6.30276956    -2.02099523    -0.05116646    -0.00036226    -0.00124945    -0.00036848
H        -4.06090150    -1.52533963     0.43321787     0.00004299     0.00046831    -0.00004754
C        -4.04295483     0.52226983    -0.02417187    -0.00071847    -0.00011596    -0.00027861
C        -2.54724121     0.59496603     0.17107214     0.00054857    -0.00002866     0.00023925
H        -4.59030490     1.48319306    -0.28103962    -0.00010014     0.00071807     0.00025067
H        -2.12660468    -0.32013533     0.55364193     0.00035435     0.00130029    -0.00011921
C        -1.80899457     1.76363523     0.02684162     0.00057325    -0.00008943     0.00006904
H        -2.23454243     2.72147672    -0.38239868    -0.00084361     0.00003395     0.00075637
N        -0.44450875     1.67635497     0.16402512    -0.00005500     0.00007499    -0.00008751
H         0.06556982     2.57358530     0.19866786    -0.00071943    -0.00015773    -0.00001335
H        -0.11978855     0.86272234     0.73392347     0.00064787     0.00085138     0.00015019
    14
  Step:    18            Position(A)                                  Velocity(au)
C        -6.06784904    -0.92121835    -0.09660744    -0.00041719    -0.00025564     0.00018809
C        -4.63792975    -0.64088022     0.09105595     0.00010161     0.00006140    -0.00007140
H        -6.80657395    -0.15205546    -0.47086489     0.00029775     0.00089886    -0.00096490
H        -6.30717258    -2.03303752    -0.05519299    -0.00043861    -0.00092715    -0.00036688
H        -4.06052367    -1.51966310     0.43222109     0.00003348     0.00055851    -0.00013153
C        -4.05067887     0.52142981    -0.02729764    -0.00068734    -0.00003368    -0.00029224
C        -2.54133929     0.59478066     0.17371092     0.00052476    -0.00000207     0.00024084
H        -4.59068040     1.48966189    -0.27801440     0.00002864     0.00045714     0.00030115
H        -2.12203215    -0.30617166     0.55237765     0.00049935     0.00120188    -0.00009186
C        -1.80265109     1.76260873     0.02750730     0.00058270    -0.00009742     0.00005253
H        -2.24327994     2.72067602    -0.37345651    -0.00074181    -0.00018504     0.00087791
N        -0.44516689     1.67721670     0.16315221    -0.00006414     0.00008232    -0.00007248
H         0.05773260     2.57084625     0.19858127    -0.00069617    -0.00031595    -0.00000323
H        -0.11262416     0.87332191     0.73460882     0.00066279     0.00106940    -0.00001752
    14
  Step:    19            Position(A)                                  Velocity(au)
C        -6.07234901    -0.92408136    -0.09461340    -0.00040452    -0.00026704     0.00017565
C        -4.63716141    -0.64062301     0.09035852     0.00003517    -0.00001571    -0.00005637
H        -6.80236689    -0.14332646    -0.48072672     0.00047615     0.00068041    -0.00083009
H        -6.31236507    -2.04127851    -0.05919269    -0.00050814    -0.00056514    -0.00036287
H        -4.06016912    -1.51312125     0.43034039     0.00004055     0.00062239    -0.00020735
C        -4.05799171     0.52153306    -0.03056521    -0.00064424     0.00005449    -0.00030429
C        -2.53576104     0.59492066     0.17634108     0.00049032     0.00003032     0.00023793
H        -4.58967827     1.49319397    -0.27445132     0.00014736     0.00019040     0.00034688
H        -2.11568043    -0.29384196     0.55163225     0.00067618     0.00100770    -0.00002688
C        -1.79624680     1.76150388     0.02799091     0.00058427    -0.00010425     0.00003599
H        -2.25077092     2.71742853    -0.36319276    -0.00061877    -0.00040620     0.00099480
N        -0.44591193     1.67815590     0.16243949    -0.00007101     0.00008934    -0.00005865
H         0.05033979     2.56667322     0.19859709    -0.00063606    -0.00041385     0.00000515
H        -0.10528868     0.88611755     0.73354025     0.00068257     0.00124362    -0.00016412
    14
  Step:    20            Position(A)                                  Velocity(au)
C        -6.07669869    -0.92706035    -0.09276474    -0.00038921    -0.00027659     0.00016172
C        -4.63716042    -0.64122387     0.08982280    -0.00003786    -0.00009376    -0.00004210
H        -6.79615731    -0.13717028    -0.48902461     0.00065809     0.00043535    -0.00068198
H        -6.31828902    -2.04540100    -0.06313145    -0.00057383    -0.00018461    -0.00035520
H        -4.05963646    -1.50604707     0.42768486     0.00006734     0.00065258    -0.00027171
C        -4.06477278     0.52262194    -0.03395446    -0.00059116     0.00014425    -0.00031422
C        -2.53061256     0.59544406     0.17891601     0.00044734     0.00006692     0.00023126
H        -4.58745659     1.49382717    -0.27042577     0.00024740    -0.00006327     0.00038369
H        -2.10723939    -0.28412632     0.55178957     0.00087473     0.00073697     0.00006768
C        -1.78986908     1.76032815     0.02829470     0.00057785    -0.00011085     0.00001989
H        -2.25681674     2.71178952    -0.35169325    -0.00048101    -0.00061511     0.00110081
N        -0.44672039     1.67917114     0.16186908    -0.00007577     0.00009651    -0.00004682