     6
  Step:   300            Position(A)                                  Velocity(au)
C        -0.03610646     0.01642826     0.01381949     0.00000031     0.00000318     0.00000957
N        -0.04442812    -0.05701790     1.30077375     0.00000220    -0.00000675     0.00001358
H         0.90296977     0.08247481    -0.52880861    -0.00028403    -0.00050044    -0.00041930
H         0.80144377    -0.18976331     1.86251500    -0.00009479     0.00057856     0.00027554
H        -0.89996230     0.01678831     1.86094095     0.00007147    -0.00055379     0.00020354
H        -0.96975367     0.01731631    -0.54331221     0.00027302     0.00053160    -0.00036251
